% Model:              thermal_sim.mph
% Version:            COMSOL 5.4.0.388
% Date:               Jan 3 2020, 14:44
% Dimension:          3
% Nodes:              39
% Expressions:        84
% Description:        Temperature
% Length unit:        m
% X                       Y                        Z                        T (K) @ 1: p=1E-4 Pa, powfac=0.1 T (K) @ 2: p=1E-4 Pa, powfac=1 T (K) @ 3: p=1E-4 Pa, powfac=10 T (K) @ 4: p=2.1544E-4 Pa, powfac=0.1 T (K) @ 5: p=2.1544E-4 Pa, powfac=1 T (K) @ 6: p=2.1544E-4 Pa, powfac=10 T (K) @ 7: p=4.6416E-4 Pa, powfac=0.1 T (K) @ 8: p=4.6416E-4 Pa, powfac=1 T (K) @ 9: p=4.6416E-4 Pa, powfac=10 T (K) @ 10: p=0.001 Pa, powfac=0.1 T (K) @ 11: p=0.001 Pa, powfac=1 T (K) @ 12: p=0.001 Pa, powfac=10 T (K) @ 13: p=0.0021544 Pa, powfac=0.1 T (K) @ 14: p=0.0021544 Pa, powfac=1 T (K) @ 15: p=0.0021544 Pa, powfac=10 T (K) @ 16: p=0.0046416 Pa, powfac=0.1 T (K) @ 17: p=0.0046416 Pa, powfac=1 T (K) @ 18: p=0.0046416 Pa, powfac=10 T (K) @ 19: p=0.01 Pa, powfac=0.1 T (K) @ 20: p=0.01 Pa, powfac=1 T (K) @ 21: p=0.01 Pa, powfac=10 T (K) @ 22: p=0.021544 Pa, powfac=0.1 T (K) @ 23: p=0.021544 Pa, powfac=1 T (K) @ 24: p=0.021544 Pa, powfac=10 T (K) @ 25: p=0.046416 Pa, powfac=0.1 T (K) @ 26: p=0.046416 Pa, powfac=1 T (K) @ 27: p=0.046416 Pa, powfac=10 T (K) @ 28: p=0.1 Pa, powfac=0.1 T (K) @ 29: p=0.1 Pa, powfac=1 T (K) @ 30: p=0.1 Pa, powfac=10 T (K) @ 31: p=0.21544 Pa, powfac=0.1 T (K) @ 32: p=0.21544 Pa, powfac=1 T (K) @ 33: p=0.21544 Pa, powfac=10 T (K) @ 34: p=0.46416 Pa, powfac=0.1 T (K) @ 35: p=0.46416 Pa, powfac=1 T (K) @ 36: p=0.46416 Pa, powfac=10 T (K) @ 37: p=1 Pa, powfac=0.1 T (K) @ 38: p=1 Pa, powfac=1 T (K) @ 39: p=1 Pa, powfac=10 T (K) @ 40: p=2.1544 Pa, powfac=0.1 T (K) @ 41: p=2.1544 Pa, powfac=1 T (K) @ 42: p=2.1544 Pa, powfac=10 T (K) @ 43: p=4.6416 Pa, powfac=0.1 T (K) @ 44: p=4.6416 Pa, powfac=1 T (K) @ 45: p=4.6416 Pa, powfac=10 T (K) @ 46: p=10 Pa, powfac=0.1 T (K) @ 47: p=10 Pa, powfac=1 T (K) @ 48: p=10 Pa, powfac=10 T (K) @ 49: p=21.544 Pa, powfac=0.1 T (K) @ 50: p=21.544 Pa, powfac=1 T (K) @ 51: p=21.544 Pa, powfac=10 T (K) @ 52: p=46.416 Pa, powfac=0.1 T (K) @ 53: p=46.416 Pa, powfac=1 T (K) @ 54: p=46.416 Pa, powfac=10 T (K) @ 55: p=100 Pa, powfac=0.1 T (K) @ 56: p=100 Pa, powfac=1 T (K) @ 57: p=100 Pa, powfac=10 T (K) @ 58: p=215.44 Pa, powfac=0.1 T (K) @ 59: p=215.44 Pa, powfac=1 T (K) @ 60: p=215.44 Pa, powfac=10 T (K) @ 61: p=464.16 Pa, powfac=0.1 T (K) @ 62: p=464.16 Pa, powfac=1 T (K) @ 63: p=464.16 Pa, powfac=10 T (K) @ 64: p=1000 Pa, powfac=0.1 T (K) @ 65: p=1000 Pa, powfac=1 T (K) @ 66: p=1000 Pa, powfac=10 T (K) @ 67: p=2154.4 Pa, powfac=0.1 T (K) @ 68: p=2154.4 Pa, powfac=1 T (K) @ 69: p=2154.4 Pa, powfac=10 T (K) @ 70: p=4641.6 Pa, powfac=0.1 T (K) @ 71: p=4641.6 Pa, powfac=1 T (K) @ 72: p=4641.6 Pa, powfac=10 T (K) @ 73: p=10000 Pa, powfac=0.1 T (K) @ 74: p=10000 Pa, powfac=1 T (K) @ 75: p=10000 Pa, powfac=10 T (K) @ 76: p=21544 Pa, powfac=0.1 T (K) @ 77: p=21544 Pa, powfac=1 T (K) @ 78: p=21544 Pa, powfac=10 T (K) @ 79: p=46416 Pa, powfac=0.1 T (K) @ 80: p=46416 Pa, powfac=1 T (K) @ 81: p=46416 Pa, powfac=10 T (K) @ 82: p=1E5 Pa, powfac=0.1 T (K) @ 83: p=1E5 Pa, powfac=1 T (K) @ 84: p=1E5 Pa, powfac=10
-9.944681357438954E-6     0                        0                        555.1402625177257        909.0948357807471        1508.0515194470534       553.1950007351181        908.4167660472062        1507.8323861564827       549.3152292360063        907.0586527464889        1507.430459985605        540.7822920189594        903.9789015007254        1506.5157559234567       522.9181045126787        896.4768184174285        1504.7422423900466       486.6778463472738        881.0632334523972        1500.7922637531522       427.44951679339647       847.3402632140767        1492.4262678484668       367.2239783618224        773.9546398221065        1473.3470104221058       329.51155318137756       632.1345418231206        1429.0472908497666       310.4296525453643        472.34398274485346       1322.8294704021619       301.33374771141905       378.44372527765324       1070.6260777703983       297.0706126649613        333.83067026455916       714.6594392493823        295.0839391986272        313.156603473272         496.1516254323136        294.1601677423405        303.5826526028515        396.9998535805014        293.73099848931093       299.144201342624         352.24757995538005       293.53166077405086       297.0847889972064        331.78037659411206       293.4390721706569        296.1287056994662        322.34515100826314       293.396067680846         295.6847416760397        317.9782899404373        293.3760966928923        295.47859180141876       315.9536791027513        293.366824114726         295.382881246028         315.0143607725814        293.36251945188          295.33845015063764       314.5784486413354        293.36052123945365       295.317825615907         314.3761323540863        293.3595937146563        295.30825223086833       314.2822288113701        293.35916318773843       295.3038085880766        314.23864335795304       293.35896335309917       295.3017460163567        314.2184129341676        293.3588705976988        295.30078865203          314.20902283577556       293.35882754437426       295.3003442821522        314.2046643451839        293.3588075607737        295.3001380237705        314.2026413145629
-7.5000000000000044E-6    0                        0                        665.3389436574815        1186.657951820902        2114.111086703496        662.5204215693327        1185.6542111077836       2113.7749534679065       656.8892400294026        1183.645034730422        2113.0434124260537       644.5248898796168        1179.0867924260103       2111.4044448604095       618.6841882069115        1167.971524144865        2108.1263001061725       566.4884638282679        1145.1390288228088       2100.9222485673554       481.8530515567731        1095.1714971130114       2085.6393389492787       396.69327300514027       986.4808314242617        2051.3268652151482       343.8253508402841        777.5073258221216        1973.854698352144        317.20286792378425       545.8600828126783        1799.5255741844883       304.53953938377464       412.4517604169434        1423.3600949039676       298.61001562605384       349.89650201578627       897.4721163539264        295.8479559591832        321.0623724673222        579.2417101502929        294.5638706620991        307.74161706681787       438.42073258272444       293.96732434568196       301.572518689907         375.7759612686383        293.69021700238255       298.71111478791136       347.3342546427425        293.5614783607922        297.38270241912386       334.269783644331         293.50166828982094       296.76575103955713       328.23274984303174       293.4738872789721        296.4792318496956        325.4356163483141        293.46098684866973       296.3461937692701        324.13823243832394       293.4549975950445        296.2844307582148        323.5362199077513        293.45221730466636       296.2557600509362        323.25682671825706       293.4509267357078        296.2424516472987        323.1271514370254        293.4503276907922        296.2362742930514        323.06696310222134       293.4500496353285        296.23340698867713       323.0390264936183        293.44992057267024       296.2320760972779        323.02605954189175       293.4498606669302        296.2314583507871        323.0200408318273        293.44983286111415       296.23117161795835       323.0172471974791
-9.999999999999999E-6     0                        0                        552.8156849265675        903.264070208081         1496.0032656675207       550.8887167229965        902.5928737835427        1495.7904947212955       547.045609858678         901.2485170401499        1495.3941808161553       538.5929228486291        898.1999744759684        1494.4922931453405       520.8958906865698        890.7739958593661        1492.7429235088116       484.990427714168         875.5166882212305        1488.84800621066         426.2967148811025        842.1353867313001        1480.599486315611        366.59806580417023       769.4902638391414        1461.7790360115844       329.20711199109246       629.0742826521969        1418.0187351068905       310.28551744195875       470.7888346403166        1312.9167813640593       301.2655259095389        377.72167950660184       1063.2004335622883       297.03786603281645       333.4891835607999        710.816210023078         295.0677025990856        312.988602518926         494.3952529321624        294.15160375679886       303.49439812793105       396.1217112224605        293.72599867915466       299.09279901245645       351.7487644753686        293.52831689163645       297.0504665327412        331.45115379972367       293.43649791146646       296.10231229868566       322.0932395438929        293.39385114852945       295.6620317481541        317.76198311044504       293.37404638438204       295.4575930127077        315.75384557278494       293.3648510128785        295.36267713819115       314.82216347254365       293.3605821993035        295.3186150142807        314.3897938067392        293.358600629674         295.29816176751154       314.1891213874895        293.35768083045656       295.2886678932605        314.0959807772995        293.3572538895838        295.2842611574152        314.05274942808285       293.3570557194714        295.2822157166666        314.032683361119         293.3569637366829        295.2812663038939        314.0233695495922        293.3569210419746        295.2808256248138        314.0190464680517        293.35690122482924       295.2806210795515        314.0170398728187
9.769926876264224E-6      0                        0                        561.3647286948789        924.5447365323462        1539.2052500827942       559.3702711911253        923.8482318114621        1538.9888251675904       555.3918936119978        922.4532283931932        1538.5721682338576       546.6431369873112        919.289773434185         1537.6253620490397       528.3294200383328        911.5835036517626        1535.7858050341238       491.18885733807247       895.750628553064         1531.693965735519        430.52321467549126       861.1106912993118        1523.022653452647        368.8818120891561        785.7363909866866        1503.246873810238        330.30597229248497       640.1406557137839        1457.4621558961337       310.79367036680384       476.29858832027423       1347.7767111422381       301.4939887070283        380.1559597612949        1088.3841492581705       297.13565072124914       334.5195791485188        722.8107472804885        295.1047057949575        313.3795194703907        498.6376772337928        294.16042110211174       303.59202255997394       397.09013454054065       293.7218119970695        299.0557997777172        351.30813803276163       293.51818750235094       296.9520750392857        330.389637307272         293.4236824829677        295.9761872460501        320.7566151436348        293.37982651410687       295.52341944606076       316.30289936065435       293.3594743354616        295.3133257547278        314.23967855011256       293.35002888963425       295.21582585576095       313.2829199513044        293.3456450077072        295.1705745421826        312.83903197007896       293.343610261386         295.1495716890251        312.6330411355678        293.34266583179425       295.13982323803543       312.5374381450266        293.34222746991645       295.135298453756         312.4930652181602        293.3420240011187        295.1331982448787        312.47246957244124       293.3419295594336        295.13222341641966       312.46291001591993       293.34188572352195       295.13177094159414       312.4584728833996        293.3418653767019        295.1315609214843        312.45641335335387
9.83874865503917E-6       0                        0                        558.4888939502039        917.3350936073374        1524.2721344419285       556.5170791723398        916.6470863796305        1524.0626677716773       552.5840843648638        915.2690885738643        1523.6530768356304       543.9346579272794        912.144216545757         1522.7226526435875       525.8278348222663        904.5320513538619        1520.9127747276095       489.1016396824976        888.8924156599282        1516.8897272318043       429.09759401378085       854.6750182008925        1508.3659754408532       368.1080874346295        780.2167502601116        1488.9128778469599       329.9299098747449        636.3586722896692        1443.8221567449386       310.6158835891098        474.379462046846         1335.5388266271527       301.4100909211022        379.2676513241459        1079.2486664888352       297.0956270382977        334.1019961737023        718.1044560255044        295.085100095557         313.1764934269499        496.51312183831226       294.15030288090196       303.48760428097535       396.05140036739203       293.71609921520866       298.99693049447825       350.7379626650308        293.5145195117341        296.91429603644576       330.0286624826394        293.4209633202794        295.9481836282793        320.49082049367286       293.37754758387064       295.4999490353137        316.08084679726466       293.3573996756183        295.29195828549496       314.03783108554313       293.34804902386986       295.1954341766758        313.0904290659805        293.3437091364541        295.15063571094004       312.6508792439499        293.34169480941284       295.12984303437173       312.4469009650243        293.34075985735126       295.12019213500975       312.35223189503625       293.34032589449646       295.1157126293774        312.3082924071089        293.3401244675319        295.11363343681154       312.2878979354463        293.3400309735791        295.1126683632224        312.278431753392         293.33998757756535       295.11222041619817       312.2740379609734        293.3399674349276        295.1120124977058        312.2719985475159
9.767413071681315E-6      0                        0                        561.4697722826724        924.8080780755122        1539.7507014675639       559.4744877240371        924.1112629726867        1539.5340223934536       555.4944524804115        922.7156384024019        1539.1171073650057       546.7420676920244        919.5507741518837        1538.1697028066897       528.4207936775009        911.8410670774421        1536.3290617242556       491.2650956655541        896.0011336592704        1532.234709715979        430.5752873161101        861.345762592395         1523.5580075950725       368.9100733840118        785.9380030112734        1503.77044157302         330.3197084592333        640.2787975554108        1457.9603745267402       310.80016425906445       476.36868689237156       1348.2237157202474       301.4970531822933        380.1884063771786        1088.717834595304        297.1371126380932        334.5348319073768        722.9826506624684        295.1054219185143        313.3869352595134        498.7152793705708        294.16079068324285       303.5958365728193        397.1280756512088        293.7220206638241        299.05795005451375       351.32896442635354       293.51832148045764       296.95345496628215       330.4028223801461        293.42378180390574       295.9772101144494        320.766323637386         293.37990975498457       295.52427673320364       316.3110101180546        293.3595501150987        295.31410622920896       314.247051290116         293.3501012067948        295.21657068824345       313.28995093013566       293.34571571791133       295.1713028338113        312.84590449202835       293.3436802257495        295.1502923036817        312.63984014631853       293.3427354499786        295.1405402894925        312.5442030431198        293.3422969274209        295.13601385135183       312.4998142843349        293.3420933840425        295.1339128748266        312.479211290473         293.3419989077402        295.1329376900583        312.46964832332844       293.3419550557608        295.132485049849         312.46520960775484       293.3419347014827        295.13227495297485       312.4631493429247
8.85378565246668E-6       0                        0                        597.1949985797444        1014.3709809807037       1724.4759793462608       594.9184742583298        1013.568567858934        1724.167469367229        590.3747577334981        1011.9616072975864       1723.661888781554        580.3886227745744        1008.317272402508        1722.508647936363        559.497564559291         999.4382098230187        1720.3018601418362       517.1949903614252        981.1970584513431        1715.3402609959492       448.2869925170319        941.291457276631         1704.8131568971953       378.52329925139924       854.5029744328142        1680.9917527177936       334.992321948516         687.2591876942696        1626.6552809248078       313.0092288227079        500.2109011061718        1500.0658795813702       302.53953016451635       391.225455509088         1202.2188723305344       297.6344399827593        339.72352272943624       781.4465118066352        295.34904806220027       315.90978051484194       525.1116692207409        294.2865309794246        304.89345507470205       410.03614752316963       293.79302139899227       299.789602091848         358.415644090971         293.5639146485711        297.42304826151536       334.89015474388293       293.45758522063977       296.32533752893784       324.07095801812443       293.40824297926656       295.81607543954857       319.07209063264145       293.38534512309786       295.57977404172715       316.757051302269         293.37471832120013       295.47011340371694       315.6836792994101        293.36978616358607       295.4192184831677        315.18572345695554       293.36749694447286       295.39559630581635       314.9546494356931        293.36643440225475       295.3846321177724        314.8474066512523        293.36594121804944       295.3795430482679        314.79763161305834       293.3657123031327        295.3771809235417        314.7745286592966        293.3656060504381        295.3760845249793        314.76380534147756       293.36555673234864       295.3755756224105        314.7588280448473        293.3655338409285        295.375339410884         314.75651779413175
8.562732961252483E-6      0                        0                        607.8957303055754        1041.1406661255498       1779.6884607761726       605.5351603119691        1040.3067158467175       1779.3538906643932       600.8230318678942        1038.6366247732021       1778.823860459389        590.4682159862188        1034.8490889306897       1777.6140189894102       568.8090835563254        1025.6209268163445       1775.3051168139673       524.9674403908883        1006.6628897516508       1770.1024094944898       453.59966442125506       965.1901954686881        1759.0618877096254       381.4088316194465        875.0059339622859        1734.1130842374625       336.395460571023         701.3216611888539        1677.3816301588151       313.67271795345005       507.3592857412937        1545.6088060839188       302.8526667129098        394.53847071498467       1236.152411799911        297.7838351455161        341.281815070016         798.9421455457857        295.4222370773521        316.6676558591864        533.0294157866127        294.32430878769276       305.2833370752689        413.91392377012875       293.81435599965147       300.009472245988         360.546546714725         293.5776169909015        297.5641923603398        336.240241274694         293.46774596209696       296.42999016936477       325.0655707002069        293.41676047541887       295.9038050928031        319.9032837020949        293.39310013290265       295.6596530082648        317.51274601373416       293.38211948708044       295.54634951444575       316.4044094108773        293.3770231075505        295.49376399532406       315.8902416806273        293.374657667536         295.46935717185437       315.6516465169066        293.3735597476388        295.4580287966514        315.5409135388493        293.3730501427732        295.4527706893432        315.4895186714926        293.37281360610524       295.45033010484735       315.46566389742213       293.3727038157167        295.4491972886217        315.4545916236729        293.37265285557726       295.4486714825003        315.4494523578029        293.3726292019855        295.44842742504596       315.44706692800406
8.552734179381405E-6      0                        0                        608.2633416887279        1042.06030800003         1781.5852223421816       605.899884402309         1041.2252742982855       1781.249756964388        601.1819703596266        1039.5530144483264       1780.7188868207131       590.8144888670913        1035.7605591012698       1779.5071009010933       569.1289701272117        1026.5204040722197       1777.1946907030429       525.2344540100521        1007.5377392205743       1771.9837003883972       453.7821751800504        966.0112092486313        1760.9255407269309       381.5079607792206        875.7102896553787        1735.938006743249        336.44366379141866       701.8047613603508        1679.1242757910925       313.69551136265875       507.6048603085619        1547.1733811647052       302.8634241604022        394.65228555806726       1237.3181596851223       297.788967445234         341.3353484187022        799.5431880055694        295.42475140214606       316.6936917986652        533.3014209018803        294.3256066010299        305.29673102487595       414.04714033197007       293.8150889254231        300.0170256333215        360.61975143389304       293.5780877191793        297.5690412042061        336.28662195123866       293.4680950227329        296.4335853909705        325.09973947979404       293.41705308424434       295.906818944566         319.93183838805066       293.3933665473829        295.66239715867675       317.5387070400678        293.38237374565796       295.5489685187184        316.4291692684221        293.3772717244721        295.49632492101904       315.91444459733395       293.3749036659758        295.47189114193054       315.6755910533779        293.373804530719         295.4605502554948        315.5647381737161        293.37329436174036       295.45528634108655       315.5132876589837        293.373057563236         295.45284306119515       315.4894070569875        293.372947651314         295.45170899388233       315.478322795257         293.3728966347638        295.45118260705874       315.47317796511925       293.37287295498845       295.45093828006657       315.47078995262905
7.5000000000000095E-6     0                        0                        665.2972691795484        1186.241260951805        2109.9475669757066       662.4787480599578        1185.2375223721851       2109.611437589832        656.8475685530755        1183.2283505893395       2108.8799055649147       644.4832225809257        1178.6701181077826       2107.2409595211493       618.6425289709109        1167.5548705730541       2103.9628538472175       566.446817868884         1144.7224186196263       2096.7588930101565       481.8114207479584        1094.7549734776653       2081.476182008754        396.6516522901916        986.0644614249912        2047.1640837721773       343.7837372961736        777.0911496506416        1969.6926605534347       317.1612646455551        545.4440582913185        1795.36472960964         304.4979561367884        412.03593941369076       1419.2013070194132       298.5684731877244        349.481090342224         893.3171491238926        295.8064940017227        320.6477710892405        575.0949429601661        294.52255470537654       307.3284873610539        434.2896476171038        293.9262362868427        301.16168679685387       371.6697263595842        293.64941263125337       298.3031433741348        343.25910675543565       293.520942271161         296.9774361426421        330.2240810526905        293.46132749281287       296.36245391659105       324.20849259075055       293.4336632218253        296.07711181355154       321.4241805973368        293.4208245373947        295.9446963121098        320.1335786045626        293.41486583857534       295.8832413817955        319.534922161711         293.4121001699967        295.85471810425406       319.25713501947445       293.41081648594866       295.84147912023235       319.12821597432986       293.4102206582055        295.83533420428415       319.0683810131677        293.4099441006844        295.83248200345275       319.0406089384365        293.4098157343178        295.83115813266323       319.02771846734754       293.40975615198533       295.8305436470446        319.02173528035684       293.4097284963287        295.83025842825174       319.01895813951336
9.91429434478914E-6       0                        0                        556.2426910190204        911.7749787078903        1512.9860695386733       554.2883031628774        911.0935055143275        1512.7788748061491       550.3901868658362        909.728604179917         1512.3732567884804       541.8171919944837        906.6334075374837        1511.45178511433         523.8697571694521        899.0934154003877        1509.6595606420697       487.46374460614385       883.6020154931093        1505.6755231381123       427.97396439591364       849.7081990774877        1497.2345223460495       367.4954939177647        775.9495454013239        1477.968684330551        329.6313465838387        633.4172497461527        1433.305838305973        310.47455854654845       472.8711879197708        1326.0471426349397       301.34335968043655       378.5642267727811        1072.1884843114744       297.0637817915938        333.77025346919396       714.4494580371785        295.0694959577464        313.0149407472707        494.8389077893758        294.1422466697535        303.40443515797915       395.2249210095002        293.71154812887227       298.95000337058246       350.2817485237098        293.51159542690624       296.8841574648464        329.73886997400814       293.41879423868744       295.92582839323285       320.27702560820524       293.375728821225         295.48120368695476       315.90204415872125       293.3557434685647        295.2748876736889        313.8752067645545        293.3464682542227        295.179140692381         312.9352998963588        293.3421633781572        295.1347028853671        312.4992259057611        293.3401653011092        295.11407759994046       312.29686028804434       293.3392378914395        295.10450439405264       312.20293960252536       293.338807429412         295.1000609499669        312.15934745224644       293.33860762737856       295.0979984955648        312.13911419361193       293.3385148876501        295.09704119111643       312.1297228385452        293.33847184171583       295.09659685020216       312.1253637774204        293.33845186157055       295.09639060551643       312.1233404847332
9.999999999999999E-6      0                        0                        553.6944014396842        905.46709678793          1500.1821678139404       551.7597842117442        904.7930363756828        1499.9775505668044       547.9012371555094        903.4429928268353        1499.5764397761372       539.4149529553331        900.3814625442064        1498.6651246233496       521.6483421722022        892.9233498494801        1496.8929277657087       485.6055728011057        877.6001216176873        1492.9531466173717       426.6992204239893        844.0734039132091        1484.6060258150544       366.8005141126352        771.108454009455         1465.5526314864685       329.29263020499945       630.0802420733335        1421.3752044709972       310.3142270251804        471.1600694863248        1315.2789439686833       301.2676539092244        377.7662002769525        1064.1787945274323       297.02765375115706       333.3938954539928        710.302907804854         295.0517932554548        312.83166122055263       492.9395325569539        294.1331069973607        303.3100808115791        394.2872903502156        293.70638497743806       298.8967651260981        349.7641791954293        293.5082780886585        296.8499656263101        329.41010393970976       293.41633344231843       295.90046665421914       320.034477942013         293.37366545738877       295.45993731995776       315.69919476598267       293.35386452204693       295.2555212746988        313.6907114739603        293.344674890514         295.16065593498746       312.7593077627407        293.3404097343946        295.1166272908546        312.32717706012346       293.3384300927638        295.096191908618         312.1266409866997        293.3375112398449        295.0867068450202        312.03356933414983       293.3370847494628        295.08230431231533       311.9903712341578        293.33688679089386       295.08026084715414       311.97032086971956       293.33679490682346       295.07931235670014       311.9610144049493        293.3367522580501        295.07887210687335       311.95669474604995       293.33673246225044       295.07866776110075       311.9546897421782