% Model:              3D_chameleons.mph
% Version:            COMSOL 5.0.0.243
% Date:               Apr 8 2016, 11:49
% Dimension:          1
% Nodes:              5000
% Expressions:        3
% Description:        Dependent variable u2, Gradient of u2, x component, Integral on the sphere with radius r
% cln5x                   u2 (1/m)                 u2x (1/m^2)              ballint(2.5e-6[m], -u2x * rhobead * beta * hbar_const * c_const / m) (J/m)
5.0000000000000004E-8     128278.95229979523       -8.134385188564739E11    4.0848863691293924E-13
1.5E-7                    209250.27311396378       -8.059878974268965E11    4.1084864909162673E-13
2.5E-7                    289476.5317851745        -7.985372759973191E11    4.60745302283888E-13
3.5E-7                    368957.72831342765       -7.910866545677417E11    4.72946576288746E-13
4.5E-7                    447693.86269872286       -7.836360331381643E11    4.847561174530979E-13
5.5E-7                    525684.9349410606        -7.761854117085869E11    5.274018912097098E-13
6.5E-7                    602930.9450404404        -7.687347902790095E11    5.272730662522602E-13
7.5E-7                    679431.8929968625        -7.612841688494323E11    5.517720376504232E-13
8.5E-7                    755187.7788103267        -7.538335474198549E11    5.594453469814763E-13
9.5E-7                    830231.8551671435        -7.468722825010237E11    5.870189461203345E-13
1.05E-6                   904554.731938156         -7.395852529192345E11    6.004408701974787E-13
1.15E-6                   978148.90575099          -7.322982233374454E11    6.067847163704234E-13
1.25E-6                   1051014.3766056458       -7.250111937556562E11    6.310411980893479E-13
1.3500000000000002E-6     1123151.1445021215       -7.177241641738673E11    6.394892794255985E-13
1.4499999999999999E-6     1194559.209440419        -7.104371345920781E11    6.581803221908795E-13
1.55E-6                   1265238.571420537        -7.031501050102888E11    6.627321579443863E-13
1.65E-6                   1335189.2304424765       -6.958630754284998E11    6.783956216046169E-13
1.75E-6                   1404411.186506237        -6.885760458467107E11    6.763778809618388E-13
1.85E-6                   1472904.4396118193       -6.812890162649215E11    6.873038406229166E-13
1.95E-6                   1540668.9897592214       -6.740019866831323E11    6.917605650213249E-13
2.0500000000000003E-6     1607704.836948445        -6.66714957101343E11     6.934622341735407E-13
2.15E-6                   1674011.9811794898       -6.594279275195542E11    6.914917305365564E-13
2.25E-6                   1739590.422452356        -6.52140897937765E11     6.930546388599729E-13
2.35E-6                   1804440.160767043        -6.448538683559757E11    6.920635736419124E-13
2.45E-6                   1868561.1961235516       -6.375668387741865E11    6.864503646482763E-13
2.55E-6                   1931953.5285218812       -6.302798091923973E11    6.803861113898093E-13
2.65E-6                   1994617.1579620305       -6.229927796106084E11    6.745955240917332E-13
2.75E-6                   2056552.0844440022       -6.157057500288192E11    6.69045272395894E-13
2.8500000000000002E-6     2117758.307967795        -6.084187204470302E11    6.632458046404785E-13
2.95E-6                   2178235.828533408        -6.011316908652408E11    6.578744106370077E-13
3.0500000000000004E-6     2237984.6461408436       -5.938446612834517E11    6.527975021267636E-13
3.15E-6                   2297004.7607900975       -5.865576317016626E11    6.476234708030978E-13
3.25E-6                   2355296.172481175        -5.792706021198739E11    6.42468851534905E-13
3.35E-6                   2412802.8816246167       -5.712329643529778E11    6.377266344944595E-13
3.45E-6                   2469544.0233961786       -5.635898710782571E11    6.328464617881508E-13
3.5500000000000003E-6     2525520.855840268        -5.55946777803536E11     6.281605306999699E-13
3.65E-6                   2581973.8713425742       -5.945447660768495E11    6.235796408143202E-13
3.75E-6                   2641268.6893756264       -5.91351594584185E11     6.190339182332937E-13
3.85E-6                   2700244.1902594115       -5.881584230915221E11    6.147824049468975E-13
3.95E-6                   2759149.630226357        -5.922631607459285E11    6.102912872419188E-13
4.05E-6                   2818146.321337517        -5.876706614772728E11    6.064112482497685E-13
4.15E-6                   2876683.76252181         -5.830781622086174E11    6.02421007498665E-13
4.250000000000001E-6      2934761.9537792406       -5.784856629399612E11    5.980816044856941E-13
4.35E-6                   2992315.4203046877       -5.716637302222715E11    5.942895027936553E-13
4.45E-6                   3049307.5162370326       -5.681781884246733E11    5.908001830789827E-13
4.5500000000000005E-6     3105951.0579896215       -5.646926466270757E11    5.867819344895052E-13
4.6499999999999995E-6     3162246.045562449        -5.612071048294766E11    5.831080435297622E-13
4.75E-6                   3218192.478955515        -5.577215630318782E11    5.796901075700674E-13
4.85E-6                   3273996.1718473057       -5.599532120313983E11    5.760464929992351E-13
4.950000000000001E-6      3329790.8123321515       -5.559395976655605E11    5.725123297586664E-13
5.05E-6                   3385184.0913804155       -5.519259832997225E11    5.689109331966152E-13
5.15E-6                   3440176.0089920964       -5.479123689338842E11    5.653145427686909E-13
5.2500000000000006E-6     3494766.5651671938       -5.438987545680462E11    5.62134730380435E-13
5.35E-6                   3548955.759905706        -5.398851402022086E11    5.587965415429293E-13
5.45E-6                   3602743.593207636        -5.358715258363704E11    5.55432024712497E-13
5.55E-6                   3656130.0650729807       -5.31857911470533E11     5.522363315867661E-13
5.65E-6                   3709115.175501742        -5.2784429710469464E11   5.489016213837124E-13
5.75E-6                   3761698.924493919        -5.2383068273885645E11   5.455404221980606E-13
5.85E-6                   3813881.3120495128       -5.198170683730184E11    5.421692560709435E-13
5.950000000000001E-6      3865662.3381685237       -5.158034540071808E11    5.388969827804403E-13
6.05E-6                   3917042.002850949        -5.1178983964134235E11   5.3531116734734E-13
6.15E-6                   3968020.306096792        -5.077762252755043E11    5.318438780419288E-13
6.25E-6                   4018597.2479060506       -5.037626109096666E11    5.283399351862425E-13
6.35E-6                   4068772.828278726        -4.997489965438285E11    5.248245769449402E-13
6.45E-6                   4118547.0472148163       -4.957353821779904E11    5.213384949026708E-13
6.550000000000001E-6      4167919.904714324        -4.917217678121528E11    5.179635252531257E-13
6.65E-6                   4216891.400777246        -4.8770815344631415E11   5.146292781033408E-13
6.75E-6                   4265461.535403586        -4.836945390804764E11    5.113474404056168E-13
6.8500000000000005E-6     4313630.30859334         -4.796809247146385E11    5.080984620031261E-13
6.9499999999999995E-6     4361397.720346515        -4.756673103488009E11    5.048724250235364E-13
7.05E-6                   4408768.496019081        -4.7208548666220886E11   5.016435901388541E-13
7.15E-6                   4455861.280441545        -4.697702017870934E11    4.984406550870225E-13
7.250000000000001E-6      4502722.536376499        -4.674549169119782E11    4.952905300304422E-13
7.35E-6                   4549352.263823941        -4.6513963203686304E11   4.922556750530816E-13
7.45E-6                   4595750.462783872        -4.628243471617479E11    4.891666376454747E-13
7.5500000000000006E-6     4641917.133256291        -4.605090622866323E11    4.861495632672502E-13
7.65E-6                   4687852.275241197        -4.5819377741151697E11   4.832304228483536E-13
7.75E-6                   4733555.888738595        -4.5587849253640186E11   4.802487489417764E-13
7.85E-6                   4779027.973748478        -4.535632076612866E11    4.773795160492883E-13
7.95E-6                   4824268.530270853        -4.512479227861712E11    4.74592023088639E-13
8.050000000000001E-6      4869277.558305713        -4.4893263791105554E11   4.717442961088042E-13
8.15E-6                   4914055.057853064        -4.466173530359403E11    4.690484698691413E-13
8.25E-6                   4958601.028912904        -4.4430206816082513E11   4.663327437024376E-13
8.35E-6                   5002915.471485228        -4.419867832857096E11    4.636403599257761E-13
8.449999999999999E-6      5046998.385570044        -4.3967149841059436E11   4.610908296209728E-13
8.550000000000001E-6      5090849.771167345        -4.3735621353547906E11   4.585510135743784E-13
8.65E-6                   5134469.62827714         -4.3504092866036383E11   4.560217573273246E-13
8.750000000000001E-6      5177857.956899421        -4.327256437852484E11    4.534603535565215E-13
8.85E-6                   5221014.757034186        -4.304103589101329E11    4.5105265882147824E-13
8.949999999999999E-6      5263940.028681446        -4.280950740350179E11    4.4865730306248833E-13
9.050000000000001E-6      5306633.7718411945       -4.2577978915990283E11   4.4626758445747865E-13
9.15E-6                   5349095.9865134265       -4.234645042847873E11    4.4389587910058047E-13
9.25E-6                   5391326.67269815         -4.211492194096718E11    4.415540624769555E-13
9.35E-6                   5433325.830395361        -4.188339345345562E11    4.392566255938313E-13
9.450000000000001E-6      5475093.459605061        -4.1651864965944147E11   4.370010793479263E-13
9.55E-6                   5516629.56032725         -4.14203364784326E11     4.347076896880424E-13
9.65E-6                   5557934.132561926        -4.118880799092108E11    4.3237986191060897E-13
9.75E-6                   5599007.176309093        -4.095727950340953E11    4.3012144259394337E-13
9.849999999999999E-6      5639848.691568746        -4.0725751015897986E11   4.278806982607745E-13
9.950000000000001E-6      5680458.678340886        -4.0494222528386475E11   4.25690490666586E-13
1.005E-5                  5720837.136625518        -4.0262694040874945E11   4.2340676128355075E-13
1.015E-5                  5760984.0664226385       -4.0031165553363446E11   4.2121427542746777E-13
1.025E-5                  5800939.251092262        -3.985439231509357E11    4.190079317546749E-13
1.0350000000000001E-5     5840689.4573028          -3.9646020105989026E11   4.1683435092199537E-13
1.045E-5                  5880231.29130424         -3.943764789688445E11    4.146865532511693E-13
1.055E-5                  5919564.753096574        -3.922927568777986E11    4.1248208814437887E-13
1.065E-5                  5958851.017269712        -3.920433625721057E11    4.1036383371986076E-13
1.0749999999999999E-5     5997961.696982208        -3.901702316778185E11    4.081240189339571E-13
1.0850000000000001E-5     6036885.063605279        -3.882971007835322E11    4.0593865175471833E-13
1.095E-5                  6075621.117138915        -3.864239698892453E11    4.037876049816129E-13
1.1050000000000001E-5     6114169.857583126        -3.845508389949586E11    4.0163571882408885E-13
1.115E-5                  6152531.284937909        -3.826777081006715E11    3.99461790629766E-13
1.1249999999999999E-5     6190705.399203259        -3.808045772063843E11    3.9728895583101865E-13
1.1350000000000001E-5     6228692.200379184        -3.789314463120979E11    3.9521618358510237E-13
1.145E-5                  6266491.68846568         -3.7705831541781104E11   3.930900742613678E-13
1.155E-5                  6304103.863462745        -3.751851845235248E11    3.910371440097938E-13
1.165E-5                  6341528.725370386        -3.733120536292373E11    3.8896574931446137E-13
1.1750000000000001E-5     6378766.274188594        -3.714389227349512E11    3.8690387201448844E-13
1.185E-5                  6415816.509917376        -3.6956579184066406E11   3.8491813057912913E-13
1.195E-5                  6452679.432556728        -3.6769266094637756E11   3.829086532807575E-13
1.205E-5                  6489355.04210665         -3.658195300520906E11    3.809165281584484E-13
1.2149999999999999E-5     6525843.338567144        -3.6394639915780396E11   3.790230138144011E-13
1.2250000000000001E-5     6562144.32193821         -3.6207326826351746E11   3.77071601935065E-13
1.235E-5                  6598257.9922198495       -3.602001373692304E11    3.751273771916749E-13
1.245E-5                  6634184.349412056        -3.583270064749435E11    3.7330954056602924E-13
1.255E-5                  6669923.393514837        -3.5645387558065656E11   3.714069426266541E-13
1.2650000000000001E-5     6705475.12452819         -3.5458074468637E11      3.6958987320436615E-13
1.275E-5                  6740839.54245211         -3.5270761379208325E11   3.6786396132677337E-13
1.285E-5                  6776016.647286606        -3.508344828977963E11    3.660967517044092E-13
1.295E-5                  6811006.439031669        -3.4896135200351013E11   3.642306077209936E-13
1.305E-5                  6845057.217062882        -3.387627510183826E11    3.625837401145567E-13
1.3150000000000001E-5     6878883.229198401        -3.377574916920142E11    3.6094872822154573E-13
1.325E-5                  6912608.715401287        -3.3675223236564594E11   3.5920345493830264E-13
1.3350000000000001E-5     6946233.675671534        -3.357469730392775E11    3.575533168493138E-13
1.345E-5                  6979758.110009139        -3.347417137129101E11    3.5606518637814146E-13
1.3549999999999999E-5     7013182.018414114        -3.3373645438654114E11   3.5444886375071927E-13
1.3650000000000001E-5     7046505.400886449        -3.327311950601725E11    3.528829109735589E-13
1.375E-5                  7079728.257426147        -3.317259357338046E11    3.5136077191493466E-13
1.385E-5                  7112850.588033211        -3.307206764074364E11    3.498948787967251E-13
1.395E-5                  7145872.392707635        -3.297154170810683E11    3.4844734213992836E-13
1.4050000000000001E-5     7178793.671449426        -3.287101577546996E11    3.470003404108645E-13
1.415E-5                  7211614.424258577        -3.2770489842833154E11   3.4561081368995287E-13
1.425E-5                  7244334.65113509         -3.266996391019634E11    3.442574923512878E-13
1.435E-5                  7276954.35207897         -3.25694379775595E11     3.4290170818979903E-13
1.4449999999999999E-5     7309473.527090209        -3.2468912044922644E11   3.416198353130552E-13
1.4550000000000001E-5     7341892.176168813        -3.236838611228578E11    3.402860168834967E-13
1.465E-5                  7374210.29931478         -3.2267860179648987E11   3.3904658677424575E-13
1.475E-5                  7406427.896528112        -3.2167334247012164E11   3.37811946910811E-13
1.485E-5                  7438544.967808805        -3.2066808314375323E11   3.365971486742782E-13
1.4950000000000001E-5     7470561.513156864        -3.196628238173851E11    3.354234506263432E-13
1.505E-5                  7502477.5325722825       -3.186575644910165E11    3.3427843438883894E-13
1.515E-5                  7534293.026055066        -3.1765230516464905E11   3.331669975267826E-13
1.525E-5                  7566007.993605213        -3.166470458382805E11    3.320362845590594E-13
1.535E-5                  7597622.4352227235       -3.1564178651191174E11   3.309725986111447E-13
1.545E-5                  7629136.350907596        -3.146365271855431E11    3.2994000173480485E-13
1.555E-5                  7660549.74065983         -3.1363126785917535E11   3.289093051586086E-13
1.565E-5                  7691862.604479429        -3.1262600853280695E11   3.278733348935324E-13
1.575E-5                  7723074.942366389        -3.1162074920643884E11   3.2683886618683406E-13
1.585E-5                  7754186.754320716        -3.1061548988006995E11   3.258057542291522E-13
1.5949999999999998E-5     7785198.040342403        -3.096102305537023E11    3.247761564184202E-13
1.6049999999999997E-5     7816108.800431457        -3.0860497122733386E11   3.2374308266478415E-13
1.6150000000000003E-5     7846919.034587874        -3.0759971190096594E11   3.22717020062746E-13
1.6250000000000002E-5     7877610.352309702        -3.061777629377611E11    3.216855044681388E-13
1.635E-5                  7908181.4112379365       -3.052434156269448E11    3.206538824043966E-13
1.645E-5                  7938659.035435092        -3.0430906831612823E11   3.196307192160864E-13
1.655E-5                  7969043.22490116         -3.033747210053119E11    3.186012720715149E-13
1.665E-5                  7999333.979636154        -3.02440373694495E11     3.175716656162143E-13
1.675E-5                  8029531.299640061        -3.0150602638367926E11   3.165416211940018E-13
1.685E-5                  8059635.184912889        -3.0057167907286206E11   3.155147696715422E-13
1.695E-5                  8089645.635454634        -2.996373317620459E11    3.144887433267383E-13
1.705E-5                  8119562.651265299        -2.987029844512297E11    3.134642354098942E-13
1.715E-5                  8149386.232344882        -2.977686371404131E11    3.124391744777945E-13
1.7250000000000003E-5     8179116.378693381        -2.968342898295963E11    3.114104991002503E-13
1.735E-5                  8208753.090310799        -2.958999425187804E11    3.103829996994559E-13
1.745E-5                  8238296.367197135        -2.949655952079637E11    3.0936043027378436E-13
1.755E-5                  8267746.209352391        -2.940312478971469E11    3.0833891143212887E-13
1.765E-5                  8297102.616776563        -2.930969005863309E11    3.073161487523201E-13
1.7749999999999998E-5     8326365.589469656        -2.921625532755139E11    3.0629327856891293E-13
1.785E-5                  8355535.127431668        -2.912282059646979E11    3.0526945974282977E-13
1.7950000000000003E-5     8384611.230662597        -2.9029385865388104E11   3.042440798699519E-13
1.805E-5                  8413593.899162445        -2.893595113430644E11    3.0322074093621617E-13
1.815E-5                  8442483.13293121         -2.8842516403224884E11   3.021970239012734E-13
1.825E-5                  8471278.931968894        -2.8749081672143207E11   3.0117348088663795E-13
1.8350000000000002E-5     8499981.296275496        -2.865564694106154E11    3.001472570546177E-13
1.845E-5                  8528590.225851018        -2.8562212209979895E11   2.991255810295032E-13
1.855E-5                  8557105.720695456        -2.846877747889829E11    2.9810212055068003E-13
1.865E-5                  8585527.780808814        -2.8375342747816565E11   2.9707533943689265E-13
1.875E-5                  8613856.406191088        -2.828190801673496E11    2.960486134133679E-13
1.8849999999999997E-5     8642091.596842283        -2.818847328565336E11    2.9502025900638056E-13
1.8950000000000003E-5     8670233.352762397        -2.809503855457162E11    2.93993336076274E-13
1.9050000000000002E-5     8698281.67395143         -2.800160382349001E11    2.9296138370406816E-13
1.915E-5                  8726236.560409376        -2.790816909240841E11    2.919302082485421E-13
1.925E-5                  8754098.012136243        -2.781473436132672E11    2.908994290890997E-13
1.935E-5                  8781866.029132033        -2.7721299630245105E11   2.8986663699177186E-13
1.945E-5                  8809540.611396732        -2.762786489916344E11    2.8883165344904976E-13
1.955E-5                  8837121.758930359        -2.75344301680818E11     2.877980509305228E-13
1.965E-5                  8864609.471732896        -2.7440995437000146E11   2.8676116046343064E-13
1.975E-5                  8892003.749804359        -2.734756070591848E11    2.8572085078552927E-13
1.985E-5                  8919304.593144735        -2.7254125974836826E11   2.846770230111014E-13
1.995E-5                  8946512.00175403         -2.7160691243755264E11   2.8365179493742674E-13
2.005E-5                  8973625.975632245        -2.7067256512673572E11   2.82717716087139E-13
2.0150000000000002E-5     9000646.51477938         -2.697382178159188E11    2.8172936086335105E-13
2.025E-5                  9027573.61919543         -2.6880387050510272E11   2.8074602832744526E-13
2.035E-5                  9054407.2888804          -2.6786952319428625E11   2.797751704232536E-13
2.045E-5                  9081147.523834284        -2.6693517588346973E11   2.7879132029482817E-13
2.0549999999999998E-5     9107794.324057091        -2.660008285726535E11    2.7785195554771926E-13
2.065E-5                  9134347.689548818        -2.6506648126183716E11   2.7691651571058775E-13
2.0750000000000003E-5     9160807.62030946         -2.641321339510205E11    2.7593634614973855E-13
2.0850000000000002E-5     9187174.116339024        -2.6319778664020337E11   2.750108578886581E-13
2.095E-5                  9213447.177637503        -2.6226343932938715E11   2.74107213187448E-13
2.105E-5                  9239626.8042049          -2.6132909201857098E11   2.731982190745384E-13
2.115E-5                  9265712.996041214        -2.6039474470775507E11   2.722520078316416E-13
2.125E-5                  9291705.753146453        -2.5946039739693793E11   2.7137159385075164E-13
2.135E-5                  9317605.075520603        -2.585260500861219E11    2.704919891072287E-13
2.145E-5                  9343410.963163676        -2.575917027753056E11    2.695768081708043E-13
2.155E-5                  9369123.416075664        -2.566573554644887E11    2.687343929033094E-13
2.165E-5                  9394742.434256572        -2.5572300815367218E11   2.6786376833230306E-13
2.175E-5                  9420268.017706398        -2.5478866084285577E11   2.6700788898941925E-13
2.1850000000000003E-5     9445737.337811006        -2.5417280148158627E11   2.661456809741293E-13
2.195E-5                  9471102.262152193        -2.53125685342161E11     2.6534974441072645E-13
2.205E-5                  9496362.474879438        -2.5207856920273694E11   2.645181616984366E-13
2.215E-5                  9521517.975992743        -2.5103145306331342E11   2.637291236603703E-13
2.225E-5                  9546568.765492104        -2.4998433692388937E11   2.6291357255303035E-13
2.2349999999999998E-5     9571514.843377518        -2.4893722078446555E11   2.621572313779698E-13
2.245E-5                  9596218.780039005        -2.4543184556745898E11   2.613337719178812E-13
2.2550000000000003E-5     9620740.72461332         -2.4500704591881958E11   2.606087270856225E-13
2.265E-5                  9645220.189222772        -2.4458224627018027E11   2.5989108850548715E-13
2.275E-5                  9669657.173867356        -2.4415744662153964E11   2.591151566276257E-13
2.285E-5                  9694051.678547079        -2.4373264697290073E11   2.5841821457621774E-13
2.2950000000000002E-5     9718403.703261934        -2.433078473242603E11    2.576774206630971E-13
2.305E-5                  9742713.248011928        -2.428830476756208E11    2.569876161041231E-13
2.315E-5                  9767024.054361714        -2.4471955396256393E11   2.5623584078217305E-13
2.325E-5                  9791468.083260149        -2.4416102400621646E11   2.5556755651300546E-13
2.335E-5                  9815856.259162957        -2.4360249404986902E11   2.549427619849256E-13
2.345E-5                  9840188.582070125        -2.4304396409352097E11   2.5420840912431795E-13
2.3550000000000003E-5     9864465.05198166         -2.424854341371732E11    2.5357121686980034E-13
2.3650000000000002E-5     9888685.668897564        -2.4192690418082504E11   2.529269099399054E-13
2.375E-5                  9912850.432817826        -2.4136837422447696E11   2.5228813185526913E-13
2.385E-5                  9936959.343742456        -2.4080984426812973E11   2.5162362242733684E-13
2.395E-5                  9961012.401671454        -2.4025131431178122E11   2.5102813204320656E-13
2.405E-5                  9985009.60660481         -2.3969278435543335E11   2.504078464694013E-13
2.415E-5                  1.000895095854254E7      -2.391342543990857E11    2.49809688528909E-13
2.425E-5                  1.0032836457484627E7     -2.3857572444273804E11   2.4916309003223274E-13
2.435E-5                  1.0056666103431083E7     -2.3801719448639017E11   2.485470541342169E-13
2.445E-5                  1.0080439896381907E7     -2.374586645300423E11    2.4797863356239384E-13
2.455E-5                  1.0104157836337091E7     -2.369001345736942E11    2.4740246869037827E-13
2.465E-5                  1.0127819923296647E7     -2.3634160461734613E11   2.4683359576577577E-13
2.4750000000000002E-5     1.0151426157260567E7     -2.3578307466099826E11   2.4625682980283024E-13
2.485E-5                  1.0174976538228849E7     -2.3522454470465005E11   2.456823100996897E-13
2.495E-5                  1.0198471066201493E7     -2.3466601474830273E11   2.451473674854813E-13
2.505E-5                  1.0221909741178503E7     -2.3410748479195483E11   2.446192020614351E-13
2.5149999999999998E-5     1.0245292563159885E7     -2.335489548356065E11    2.440895247877252E-13
2.525E-5                  1.026861953214563E7      -2.3299042487925903E11   2.435579597185971E-13
2.5350000000000003E-5     1.0291890648135738E7     -2.3243189492291125E11   2.430225705098142E-13
2.5450000000000002E-5     1.031510591113021E7      -2.318733649665631E11    2.424888630688395E-13
2.555E-5                  1.0338265321129052E7     -2.3131483501021515E11   2.4195219716665205E-13
2.565E-5                  1.0361368878132254E7     -2.3075630505386713E11   2.41415307801949E-13
2.575E-5                  1.0384416582139822E7     -2.3019777509751932E11   2.4086983987363573E-13
2.585E-5                  1.0407408433151757E7     -2.2963924514117154E11   2.4032837047215617E-13
2.595E-5                  1.0430344431168059E7     -2.2908071518482376E11   2.397778272551734E-13
2.605E-5                  1.0453224576188724E7     -2.2852218522847546E11   2.392306227058656E-13
2.615E-5                  1.0476048868213754E7     -2.2796365527212787E11   2.386776332462704E-13
2.625E-5                  1.0498817307243146E7     -2.2740512531577988E11   2.381288264978312E-13
2.635E-5                  1.052152989327691E7      -2.2684659535943198E11   2.3758192033283023E-13
2.6450000000000003E-5     1.0544186626315035E7     -2.262880654030843E11    2.370293642583344E-13
2.655E-5                  1.0566787506357526E7     -2.2572953544673633E11   2.364688732306091E-13
2.665E-5                  1.0589332533404382E7     -2.2517100549038858E11   2.3590988339966544E-13
2.675E-5                  1.0611821707455605E7     -2.2461247553404053E11   2.3534851962675617E-13
2.685E-5                  1.063425502851119E7      -2.240539455776924E11    2.3478679385481755E-13
2.695E-5                  1.065663249657114E7      -2.2349541562134482E11   2.3422523848509136E-13
2.705E-5                  1.067895411163546E7      -2.2293688566499667E11   2.3366040251190363E-13
2.7150000000000003E-5     1.0701219873704143E7     -2.223783557086489E11    2.3309549350731525E-13
2.725E-5                  1.0723429782777186E7     -2.2181982575230112E11   2.3253071692449875E-13
2.735E-5                  1.0745583838854602E7     -2.2126129579595343E11   2.319605592621612E-13
2.745E-5                  1.076768204193638E7      -2.2070276583960547E11   2.313900727423926E-13
2.7550000000000002E-5     1.078972439202252E7      -2.2014423588325745E11   2.308167940684613E-13
2.765E-5                  1.0811710889113031E7     -2.195857059269095E11    2.3024452164714175E-13
2.775E-5                  1.0833641533207905E7     -2.190271759705618E11    2.296704843893608E-13
2.785E-5                  1.0855516324307144E7     -2.184686460142136E11    2.29095876848252E-13
2.795E-5                  1.0877335262410747E7     -2.1791011605786572E11   2.285206547778123E-13
2.805E-5                  1.0899098347518716E7     -2.173515861015177E11    2.279435033115826E-13
2.8150000000000003E-5     1.092080557963105E7      -2.1679305614517032E11   2.2736460287661873E-13
2.8250000000000002E-5     1.0942456958747752E7     -2.1623452618882208E11   2.2678574483729888E-13
2.835E-5                  1.0964052484868815E7     -2.1567599623247427E11   2.2620531431635304E-13
2.845E-5                  1.0985592157994246E7     -2.1511746627612653E11   2.256247457129848E-13
2.855E-5                  1.1007075978124041E7     -2.145589363197785E11    2.2504085353393629E-13
2.865E-5                  1.1028503945258204E7     -2.1400040636343066E11   2.2445713007263032E-13
2.875E-5                  1.1049876059396725E7     -2.134418764070827E11    2.2387289480637645E-13
2.885E-5                  1.1071192320539618E7     -2.1288334645073474E11   2.2328888005836947E-13
2.895E-5                  1.1092452728686875E7     -2.123248164943869E11    2.2270551185069955E-13
2.905E-5                  1.1113657283838492E7     -2.117662865380389E11    2.2212122849638377E-13
2.915E-5                  1.113480598599448E7      -2.112077565816914E11    2.215365849086091E-13
2.9250000000000003E-5     1.1155898835154833E7     -2.1064922662534314E11   2.2095417890854827E-13
2.9350000000000002E-5     1.1176935831319546E7     -2.1009069666899536E11   2.203693397524805E-13
2.945E-5                  1.119791697448863E7      -2.095321667126474E11    2.1978432872659222E-13
2.955E-5                  1.1218842264662076E7     -2.0897363675629956E11   2.1920236519293625E-13
2.965E-5                  1.1239711701839892E7     -2.0841510679995172E11   2.1862148641653181E-13
2.9749999999999998E-5     1.1260525286022069E7     -2.0785657684360367E11   2.1804029849455607E-13
2.985E-5                  1.1281283017208612E7     -2.072980468872556E11    2.174622456578365E-13
2.9950000000000003E-5     1.130198489539952E7      -2.0673951693090802E11   2.1688356548057226E-13