% Model:              3D_chameleons.mph
% Version:            COMSOL 5.0.0.243
% Date:               Apr 9 2016, 15:16
% Dimension:          1
% Nodes:              5000
% Expressions:        3
% Description:        Dependent variable u2, Gradient of u2, x component, Integral on the sphere with radius r
% cln5x                   u2 (1/m)                 u2x (1/m^2)              ballint(2.5e-6[m], -u2x * rhobead * beta * hbar_const * c_const / m) (J/m)
5.0000000000000004E-8     7074.151272112788        -1.1229907939042134E9    5.863550282928466E-22
1.5E-7                    7186.176366332798        -1.1175110904960003E9    5.925694868973843E-22
2.5E-7                    7297.653490211988        -1.1120313870877888E9    6.638879988174827E-22
3.5E-7                    7408.582643750357        -1.1065516836795795E9    6.839595455465081E-22
4.5E-7                    7518.963826947903        -1.1010719802713661E9    7.035503873271555E-22
5.5E-7                    7628.79703980463         -1.0955922768631551E9    7.653355157744944E-22
6.5E-7                    7738.082282320535        -1.0901125734549446E9    7.690803210362571E-22
7.5E-7                    7846.819554495619        -1.084632870046733E9     8.064507362046692E-22
8.5E-7                    7955.008856329881        -1.0791531666385221E9    8.210767355782503E-22
9.5E-7                    8062.399697505514        -1.0706426181426659E9    8.628479221400229E-22
1.05E-6                   8169.212212880719        -1.0656076893615305E9    8.854562187589753E-22
1.15E-6                   8275.521235377817        -1.060572760580397E9     8.986108390304606E-22
1.25E-6                   8381.326764996802        -1.0555378317992625E9    9.362431373495603E-22
1.3500000000000002E-6     8486.628801737668        -1.0505029030181276E9    9.52059368104786E-22
1.4499999999999999E-6     8591.427345600428        -1.0454679742369937E9    9.819586690959067E-22
1.55E-6                   8695.722396585072        -1.0404330454558585E9    9.923071664117568E-22
1.65E-6                   8799.5139546916          -1.0353981166747241E9    1.0179924009324045E-21
1.75E-6                   8902.802019920013        -1.030363187893589E9     1.0192438664373243E-21
1.85E-6                   9005.586592270318        -1.0253282591124539E9    1.038113180659965E-21
1.95E-6                   9107.867671742506        -1.0202933303313189E9    1.0478557686199316E-21
2.0500000000000003E-6     9209.64525833658         -1.015258401550184E9     1.0539628302199391E-21
2.15E-6                   9310.91935205254         -1.0102234727690506E9    1.0547037525034003E-21
2.25E-6                   9411.68995289039         -1.005188543987916E9     1.0599403796360576E-21
2.35E-6                   9511.957060850124        -1.0001536152067804E9    1.0618902743413954E-21
2.45E-6                   9611.720675931747        -9.951186864256458E8     1.0569030234173418E-21
2.55E-6                   9710.980798135255        -9.900837576445122E8     1.0514781037969447E-21
2.65E-6                   9809.73742746065         -9.850488288633766E8     1.0459440736712449E-21
2.75E-6                   9907.99056390793         -9.800139000822415E8     1.0403828917902904E-21
2.8500000000000002E-6     10005.7402074771         -9.749789713011084E8     1.0347341373789731E-21
2.95E-6                   10102.986358168151       -9.699440425199723E8     1.0291592915548004E-21
3.0500000000000004E-6     10199.729015981095       -9.649091137388382E8     1.0237738440062818E-21
3.15E-6                   10295.968180915916       -9.598741849577022E8     1.0182685426674143E-21
3.25E-6                   10391.70385297263        -9.548392561765699E8     1.0126303856913304E-21
3.35E-6                   10486.7250188047         -9.474132491779783E8     1.0070496932304034E-21
3.45E-6                   10581.192662791937       -9.41939630566833E8      1.001025033082549E-21
3.5500000000000003E-6     10675.112944918063       -9.364660119556838E8     9.957861450828491E-22
3.65E-6                   10768.895009616368       -9.461681586090515E8     9.899137483290201E-22
3.75E-6                   10863.283693457552       -9.416055182145524E8     9.841097397715784E-22
3.85E-6                   10957.216113259283       -9.370428778200558E8     9.783756255864213E-22
3.95E-6                   11050.956486841298       -9.40145726484549E8      9.729064867927799E-22
4.05E-6                   11144.64747181673        -9.336739730241253E8     9.67354490155056E-22
4.15E-6                   11237.691281446121       -9.272022195637016E8     9.61783215888171E-22
4.250000000000001E-6      11330.087915729475       -9.207304661032782E8     9.558476360161654E-22
4.35E-6                   11421.600782085483       -9.058426907617202E8     9.500945940296542E-22
4.45E-6                   11511.930520551861       -9.007520785659804E8     9.448272845146049E-22
4.5500000000000005E-6     11601.751197798672       -8.956614663702404E8     9.38973791673995E-22
4.6499999999999995E-6     11691.062813825913       -8.905708541744969E8     9.334050721255004E-22
4.75E-6                   11779.865368633573       -8.854802419787548E8     9.277858215055382E-22
4.85E-6                   11868.47181708157        -8.890852316820223E8     9.2231594748862E-22
4.950000000000001E-6      11957.086279876637       -8.832040242194862E8     9.16706514973651E-22
5.05E-6                   12045.112621925467       -8.773228167569487E8     9.109365010623949E-22
5.15E-6                   12132.550843228028       -8.714416092944131E8     9.053059964782398E-22
5.2500000000000006E-6     12219.400943784349       -8.65560401831878E8      8.998366709031186E-22
5.35E-6                   12305.662923594407       -8.596791943693426E8     8.945594296912198E-22
5.45E-6                   12391.336782658216       -8.537979869068079E8     8.889571787436776E-22
5.55E-6                   12476.42252097577        -8.47916779444273E8      8.837041231425248E-22
5.65E-6                   12560.920138547071       -8.420355719817368E8     8.782572118112674E-22
5.75E-6                   12644.829635372118       -8.36154364519201E8      8.729090659407328E-22
5.85E-6                   12728.151011450907       -8.302731570566655E8     8.675824977524117E-22
5.950000000000001E-6      12810.88426678345        -8.2439194959413E8       8.622205750172262E-22
6.05E-6                   12893.029401369738       -8.185107421315936E8     8.567725623954033E-22
6.15E-6                   12974.586415209771       -8.126295346690569E8     8.51510804120574E-22
6.25E-6                   13055.555308303547       -8.067483272065221E8     8.461897486919004E-22
6.35E-6                   13135.936080651076       -8.008671197439854E8     8.408193788121636E-22
6.45E-6                   13215.728732252346       -7.949859122814498E8     8.355398931894813E-22
6.550000000000001E-6      13294.933263107367       -7.891047048189158E8     8.3045054536635535E-22
6.65E-6                   13373.549673216128       -7.832234973563795E8     8.254199310536791E-22
6.75E-6                   13451.577962578638       -7.773422898938452E8     8.204615039751531E-22
6.8500000000000005E-6     13529.018131194898       -7.714610824313091E8     8.155327915290229E-22
6.9499999999999995E-6     13605.870179064903       -7.655798749687723E8     8.106689066877058E-22
7.05E-6                   13682.128260491567       -7.595171370152595E8     8.057949085913005E-22
7.15E-6                   13757.902072938152       -7.559591119165703E8     8.009615828402862E-22
7.250000000000001E-6      13833.320082874881       -7.524010868178822E8     7.961852203285863E-22
7.35E-6                   13908.38229030173        -7.488430617191925E8     7.915803846962588E-22
7.45E-6                   13983.08869521872        -7.452850366205056E8     7.869124502079281E-22
7.5500000000000006E-6     14057.439297625831       -7.41727011521816E8      7.8234620804961E-22
7.65E-6                   14131.434097523083       -7.381689864231268E8     7.779244874548221E-22
7.75E-6                   14205.073094910458       -7.346109613244381E8     7.734024636696778E-22
7.85E-6                   14278.356289787967       -7.310529362257491E8     7.69052572113121E-22
7.95E-6                   14351.283682155608       -7.274949111270609E8     7.648262514667545E-22
8.050000000000001E-6      14423.855272013383       -7.239368860283716E8     7.604874958936702E-22
8.15E-6                   14496.071059361286       -7.203788609296817E8     7.563840368447231E-22
8.25E-6                   14567.931044199324       -7.168208358309929E8     7.522428067922417E-22
8.35E-6                   14639.435226527483       -7.132628107323037E8     7.481291853073144E-22
8.449999999999999E-6      14710.58360634578        -7.097047856336153E8     7.442358582473245E-22
8.550000000000001E-6      14781.3761836542         -7.061467605349264E8     7.4034677050289965E-22
8.65E-6                   14851.812958452763       -7.02588735436237E8      7.364678781195623E-22
8.750000000000001E-6      14921.893930741457       -6.990307103375487E8     7.325427472344258E-22
8.85E-6                   14991.61910052027        -6.95472685238859E8      7.288414467779922E-22
8.949999999999999E-6      15060.988467789224       -6.919146601401715E8     7.251614810962603E-22
9.050000000000001E-6      15130.002032548311       -6.883566350414817E8     7.214833448367042E-22
9.15E-6                   15198.65979479752        -6.84798609942793E8      7.178358715038621E-22
9.25E-6                   15266.96175453687        -6.812405848441055E8     7.142301421465423E-22
9.35E-6                   15334.907911766342       -6.776825597454145E8     7.106901106043745E-22
9.450000000000001E-6      15402.498266485949       -6.74124534646727E8      7.072202318105797E-22
9.55E-6                   15469.732818695687       -6.705665095480376E8     7.03692001479256E-22
9.65E-6                   15536.611568395556       -6.670084844493493E8     7.001094770343319E-22
9.75E-6                   15603.134515585563       -6.634504593506606E8     6.966338920570001E-22
9.849999999999999E-6      15669.30166026569        -6.598924342519695E8     6.931855970783894E-22
9.950000000000001E-6      15735.113002435945       -6.563344091532824E8     6.898159192948731E-22
1.005E-5                  15800.568542096345       -6.527763840545936E8     6.863004164179548E-22
1.015E-5                  15865.668279246873       -6.49218358955906E8      6.829261003828492E-22
1.025E-5                  15930.46569426104        -6.464122486161227E8     6.795289573015642E-22
1.0350000000000001E-5     15994.946349674748       -6.432008596580787E8     6.761827810039707E-22
1.045E-5                  16059.10586619266        -6.399894707000345E8     6.728769313658837E-22
1.055E-5                  16122.944243814763       -6.367780817419899E8     6.694824124844788E-22
1.065E-5                  16186.715367981844       -6.364532926552107E8     6.662212869662524E-22
1.0749999999999999E-5     16250.216404942123       -6.335674465503862E8     6.627686698510521E-22
1.0850000000000001E-5     16313.428857291921       -6.306816004455643E8     6.594012131612554E-22
1.095E-5                  16376.352725031236       -6.277957543407412E8     6.560862204611399E-22
1.1050000000000001E-5     16438.98800816007        -6.249099082359178E8     6.527686174400181E-22
1.115E-5                  16501.334706678426       -6.220240621310931E8     6.494154152691285E-22
1.1249999999999999E-5     16563.392820586287       -6.191382160262686E8     6.4606259487566265E-22
1.1350000000000001E-5     16625.162349883674       -6.162523699214467E8     6.42865277333672E-22
1.145E-5                  16686.643294570582       -6.13366523816623E8      6.395823860378683E-22
1.155E-5                  16747.835654647002       -6.104806777118007E8     6.364134627894202E-22
1.165E-5                  16808.739430112943       -6.075948316069752E8     6.332137981455835E-22
1.1750000000000001E-5     16869.354620968392       -6.047089855021546E8     6.300273249366273E-22
1.185E-5                  16929.68122721337        -6.01823139397329E8      6.269588051217589E-22
1.195E-5                  16989.71924884786        -5.989372932925057E8     6.238507224204111E-22
1.205E-5                  17049.46868587187        -5.960514471876832E8     6.207692536875019E-22
1.2149999999999999E-5     17108.929538285396       -5.931656010828588E8     6.178402503872204E-22
1.2250000000000001E-5     17168.10180608844        -5.902797549780369E8     6.148183879602148E-22
1.235E-5                  17226.985489281007       -5.873939088732116E8     6.11806373484634E-22
1.245E-5                  17285.58058786308        -5.845080627683897E8     6.089916321383446E-22
1.255E-5                  17343.887101834684       -5.816222166635653E8     6.060416117943149E-22
1.2650000000000001E-5     17401.9050311958         -5.787363705587432E8     6.03222420968235E-22
1.275E-5                  17459.634375946425       -5.75850524453918E8      6.005462552467015E-22
1.285E-5                  17517.075136086587       -5.729646783490968E8     5.978040616993335E-22
1.295E-5                  17574.227311616243       -5.70078832244273E8      5.949035377604391E-22
1.305E-5                  17629.910416196595       -5.540947738432544E8     5.923457527583534E-22
1.3150000000000001E-5     17685.241001991206       -5.525169420491005E8     5.898056349545283E-22
1.325E-5                  17740.413804606414       -5.509391102549465E8     5.870897578876974E-22
1.3350000000000001E-5     17795.428824042203       -5.493612784607911E8     5.845216453232212E-22
1.345E-5                  17850.286060298567       -5.477834466666378E8     5.822063753982471E-22
1.3549999999999999E-5     17904.98551337553        -5.462056148724834E8     5.796888699659296E-22
1.3650000000000001E-5     17959.52718327307        -5.446277830783291E8     5.772485133424134E-22
1.375E-5                  18013.91106999119        -5.430499512841753E8     5.748751507753963E-22
1.385E-5                  18068.137173529904       -5.4147211949002E8       5.725889522497528E-22
1.395E-5                  18122.2054938892         -5.398942876958672E8     5.703291857772573E-22
1.4050000000000001E-5     18176.116031069083       -5.383164559017117E8     5.680692911172894E-22
1.415E-5                  18229.86878506955        -5.3673862410755754E8    5.658984001358261E-22
1.425E-5                  18283.46375589059        -5.3516079231340474E8    5.637826908237541E-22
1.435E-5                  18336.900943532222       -5.335829605192508E8     5.61661948711787E-22
1.4449999999999999E-5     18390.18034799444        -5.320051287250959E8     5.596559448471313E-22
1.4550000000000001E-5     18443.30196927724        -5.3042729693094075E8    5.575675828901527E-22
1.465E-5                  18496.265807380627       -5.2884946513678825E8    5.556259779369711E-22
1.475E-5                  18549.071862304598       -5.2727163334263384E8    5.536912067256555E-22
1.485E-5                  18601.720134049156       -5.2569380154847896E8    5.517864999285879E-22
1.4950000000000001E-5     18654.210622614293       -5.241159697543249E8     5.499454341721089E-22
1.505E-5                  18706.54332800002        -5.225381379601711E8     5.481488789316764E-22
1.515E-5                  18758.71825020633        -5.209603061660167E8     5.464045424788504E-22
1.525E-5                  18810.735389233225       -5.1938247437186337E8    5.44629449332102E-22
1.535E-5                  18862.594745080707       -5.178046425777085E8     5.429590332072364E-22
1.545E-5                  18914.296317748765       -5.1622681078355503E8    5.413372904754502E-22
1.555E-5                  18965.840107237414       -5.1464897898940015E8    5.397185833742701E-22
1.565E-5                  19017.226113546643       -5.13071147195246E8      5.380917090568042E-22
1.575E-5                  19068.454336676456       -5.114933154010916E8     5.364670081693032E-22
1.585E-5                  19119.52477662686        -5.099154836069374E8     5.348444752786564E-22
1.5949999999999998E-5     19170.43743339785        -5.0833765181278324E8    5.332273214929714E-22
1.6049999999999997E-5     19221.19230698942        -5.067598200186312E8     5.316047660965024E-22
1.6150000000000003E-5     19271.789397401582       -5.051819882244766E8     5.299931387567665E-22
1.6250000000000002E-5     19322.199699276633       -5.029464004168583E8     5.283729244466961E-22
1.635E-5                  19372.42090920072        -5.014777980649674E8     5.267525739807963E-22
1.645E-5                  19422.495258889627       -5.000091957130766E8     5.251453715915117E-22
1.655E-5                  19472.42274834334        -4.9854059336118644E8    5.235283409586278E-22
1.665E-5                  19522.203377561862       -4.9707199100929487E8    5.219109935367968E-22
1.675E-5                  19571.8371465452         -4.9560338865740407E8    5.202929745481478E-22
1.685E-5                  19621.324055293346       -4.941347863055131E8     5.186799489075444E-22
1.695E-5                  19670.664103806295       -4.926661839536221E8     5.170681868321404E-22
1.705E-5                  19719.857292084067       -4.9119758160173285E8    5.154586828402203E-22
1.715E-5                  19768.90362012665        -4.897289792498416E8     5.138482665833622E-22
1.7250000000000003E-5     19817.803087934033       -4.882603768979509E8     5.122322207644319E-22
1.735E-5                  19866.55569550624        -4.8679177454606056E8    5.106179631230776E-22
1.745E-5                  19915.161442843248       -4.8532317219416916E8    5.090113985962333E-22
1.755E-5                  19963.62032994507        -4.838545698422785E8     5.07406501518373E-22
1.765E-5                  20011.932356811696       -4.8238596749038863E8    5.057995019788019E-22
1.7749999999999998E-5     20060.097523443146       -4.809173651384964E8     5.041924341627663E-22
1.785E-5                  20108.1158298394         -4.79448762786606E8      5.025838209282814E-22
1.7950000000000003E-5     20155.987276000465       -4.779801604347146E8     5.009727140407633E-22
1.805E-5                  20203.711861926342       -4.765115580828239E8     4.993647785316745E-22
1.815E-5                  20251.289587617037       -4.7504295573093474E8    4.977562359936567E-22
1.825E-5                  20298.720453072525       -4.735743533790442E8     4.961479619155474E-22
1.8350000000000002E-5     20346.004458292842       -4.7210575102715325E8    4.945353797380608E-22
1.845E-5                  20393.14160327796        -4.706371486752612E8     4.929301252742061E-22
1.855E-5                  20440.1318880279         -4.691685463233719E8     4.913219553308477E-22
1.865E-5                  20486.975312542636       -4.6769994397147936E8    4.897085597035692E-22
1.875E-5                  20533.67187682219        -4.662313416195899E8     4.8809519678687465E-22
1.8849999999999997E-5     20580.22158086655        -4.647627392677001E8     4.864793698961761E-22
1.8950000000000003E-5     20626.624424675734       -4.6329413691580796E8    4.848657068597119E-22
1.9050000000000002E-5     20672.88040824972        -4.6182553456391776E8    4.832441664775529E-22
1.915E-5                  20718.98953158851        -4.6035693221202666E8    4.816239635236268E-22
1.925E-5                  20764.95179469212        -4.588883298601359E8     4.800043182844809E-22
1.935E-5                  20810.767197560544       -4.574197275082446E8     4.783815257579129E-22
1.945E-5                  20856.435740193767       -4.559511251563545E8     4.767552789180681E-22
1.955E-5                  20901.95742259182        -4.544825228044634E8     4.751311385194601E-22
1.965E-5                  20947.332244754667       -4.530139204525725E8     4.7350205684553205E-22
1.975E-5                  20992.560206682327       -4.5154531810068214E8    4.718676323286549E-22
1.985E-5                  21037.641308374805       -4.5007671574879014E8    4.702275266258655E-22
1.995E-5                  21082.575549832087       -4.486081133969021E8     4.68616732190432E-22
2.005E-5                  21127.362931054184       -4.4713951104500926E8    4.671483710095743E-22
2.0150000000000002E-5     21172.003452041088       -4.456709086931186E8     4.655942616128607E-22
2.025E-5                  21216.497112792807       -4.442023063412286E8     4.640478896645781E-22
2.035E-5                  21260.843913309334       -4.4273370398933685E8    4.625210220905715E-22
2.045E-5                  21305.043853590665       -4.412651016374464E8     4.609734341493284E-22
2.0549999999999998E-5     21349.09693363682        -4.397964992855555E8     4.594948045567556E-22
2.065E-5                  21393.003153447786       -4.383278969336662E8     4.580222785452699E-22
2.0750000000000003E-5     21436.762513023565       -4.368592945817753E8     4.564790883159884E-22
2.0850000000000002E-5     21480.375012364137       -4.353906922298832E8     4.550216273032366E-22
2.095E-5                  21523.840651469534       -4.3392208987799215E8    4.53597181816731E-22
2.105E-5                  21567.159430339736       -4.32453487526103E8      4.521645904190757E-22
2.115E-5                  21610.331348974752       -4.309848851742122E8     4.506734505389661E-22
2.125E-5                  21653.35640737458        -4.2951628282232165E8    4.492846344507098E-22
2.135E-5                  21696.23460553921        -4.2804768047043085E8    4.478966158877209E-22
2.145E-5                  21738.965943468666       -4.2657907811854076E8    4.464525546120655E-22
2.155E-5                  21781.55042116293        -4.2511047576664853E8    4.451222923082891E-22
2.165E-5                  21823.988038621996       -4.236418734147575E8     4.437471674698087E-22
2.175E-5                  21866.27879584588        -4.221732710628679E8     4.423947692396429E-22
2.1850000000000003E-5     21908.48199784524        -4.2121464224570405E8    4.410319683824817E-22
2.195E-5                  21950.52122173273        -4.195698355041018E8     4.397728593447623E-22
2.205E-5                  21992.395964946063       -4.1792502876250035E8    4.384574555620908E-22
2.215E-5                  22034.106227485237       -4.1628022202089864E8    4.372081594724447E-22
2.225E-5                  22075.65200935025        -4.1463541527929723E8    4.359171190942002E-22
2.2349999999999998E-5     22117.03331054109        -4.1299060853769636E8    4.347181936596751E-22
2.245E-5                  22158.029460174013       -4.0738921237556195E8    4.334136092102985E-22
2.2550000000000003E-5     22198.734318430506       -4.0670795275403976E8    4.322633398971924E-22
2.265E-5                  22239.37105072483        -4.060266931325195E8     4.311243741605893E-22
2.275E-5                  22279.939657057006       -4.0534543351099694E8    4.298931836774138E-22
2.285E-5                  22320.44013742704        -4.046641738894769E8     4.287858021615602E-22
2.2950000000000002E-5     22360.872491834903       -4.039829142679539E8     4.276093022667691E-22
2.305E-5                  22401.23672028062        -4.0330165464643383E8    4.26512809400729E-22
2.315E-5                  22441.601824404475       -4.061875146011494E8     4.253183724703177E-22
2.325E-5                  22482.17593615998        -4.0529472050913256E8    4.24254586814014E-22
2.335E-5                  22522.660768506303       -4.0440192641711515E8    4.2325907813276024E-22
2.345E-5                  22563.056321443404       -4.035091323250954E8     4.220913798722004E-22
2.3550000000000003E-5     22603.362594971317       -4.026163382330785E8     4.2107580349776844E-22
2.3650000000000002E-5     22643.57958909003        -4.017235441410599E8     4.2004874696124103E-22
2.375E-5                  22683.707303799532       -4.008307500490411E8     4.1903027472954775E-22
2.385E-5                  22723.74573909983        -3.9993795595702386E8    4.179711920028744E-22
2.395E-5                  22763.69489499094        -3.990451618650051E8     4.1702056011976223E-22
2.405E-5                  22803.55477147283        -3.9815236777298623E8    4.160304348067077E-22
2.415E-5                  22843.325368545535       -3.972595736809691E8     4.150753617799859E-22
2.425E-5                  22883.00668620902        -3.9636677958895093E8    4.140441943132375E-22
2.435E-5                  22922.598724463318       -3.954739854969325E8     4.1306049287186386E-22
2.445E-5                  22962.101483308415       -3.945811914049145E8     4.121518029039091E-22
2.455E-5                  23001.5149627443         -3.9368839731289685E8    4.1123103826996223E-22
2.465E-5                  23040.83916277099        -3.92795603220878E8      4.1032160669165018E-22
2.4750000000000002E-5     23080.07408338848        -3.919028091288593E8     4.0939972527874194E-22
2.485E-5                  23119.219724596773       -3.9101001503684133E8    4.08481613446709E-22
2.495E-5                  23158.276086395847       -3.901172209448238E8     4.0762561737678822E-22
2.505E-5                  23197.243168785728       -3.8922442685280585E8    4.067802786009053E-22
2.5149999999999998E-5     23236.12097176641        -3.8833163276078737E8    4.0593256615581886E-22
2.525E-5                  23274.90949533789        -3.874388386687691E8     4.0508184685150657E-22
2.5350000000000003E-5     23313.60873950017        -3.865460445767516E8     4.042251027782872E-22
2.5450000000000002E-5     23352.21870425324        -3.85653250484733E8      4.033710163202619E-22
2.555E-5                  23390.739389597114       -3.84760456392715E8      4.0251222825149774E-22
2.565E-5                  23429.17079553178        -3.8386766230069613E8    4.0165308598275793E-22
2.575E-5                  23467.512922057253       -3.829748682086784E8     4.0078041475809274E-22
2.585E-5                  23505.765769173515       -3.8208207411665994E8    3.9991402064605766E-22
2.595E-5                  23543.929336880577       -3.811892800246423E8     3.990333123158266E-22
2.605E-5                  23582.00362517845        -3.8029648593262315E8    3.9815788573796744E-22
2.615E-5                  23619.988634067104       -3.794036918406051E8     3.9727334313237214E-22
2.625E-5                  23657.884363546564       -3.785108977485877E8     3.9639536559508423E-22
2.635E-5                  23695.690813616828       -3.77618103656569E8      3.9552035850474906E-22
2.6450000000000003E-5     23733.40798427789        -3.767253095645515E8     3.946364348334964E-22
2.655E-5                  23771.035875529735       -3.7583251547253346E8    3.937400145040027E-22
2.665E-5                  23808.57448737239        -3.7493972138051534E8    3.92845945799519E-22
2.675E-5                  23846.023819805843       -3.74046927288497E8      3.919481357854089E-22
2.685E-5                  23883.383872830083       -3.731541331964782E8     3.9104975473496763E-22
2.695E-5                  23920.65464644514        -3.7226133910446036E8    3.9015161803453345E-22
2.705E-5                  23957.83614065098        -3.713685450124424E8     3.8924832368151946E-22
2.7150000000000003E-5     23994.928355447624       -3.704757509204239E8     3.883449008698386E-22
2.725E-5                  24031.931290835066       -3.6958295682840633E8    3.8744163670039957E-22
2.735E-5                  24068.844946813304       -3.686901627363881E8     3.865299067263608E-22
2.745E-5                  24105.669323382343       -3.6779736864436924E8    3.8561768297281597E-22
2.7550000000000002E-5     24142.404420542178       -3.6690457455235195E8    3.8470106224945666E-22
2.765E-5                  24179.05023829281        -3.660117804603332E8     3.837859999721637E-22
2.775E-5                  24215.606776634242       -3.6511898636831546E8    3.828681614199263E-22
2.785E-5                  24252.07403556647        -3.6422619227629673E8    3.8194942068384642E-22
2.795E-5                  24288.4520150895         -3.6333339818427885E8    3.8102966597154305E-22
2.805E-5                  24324.740715203327       -3.624406040922601E8     3.8010690953462906E-22
2.8150000000000003E-5     24360.940135907953       -3.6154781000024277E8    3.7918136727931047E-22
2.8250000000000002E-5     24397.05027720338        -3.6065501590822434E8    3.7825589540408886E-22
2.835E-5                  24433.0711390896         -3.597622218162061E8     3.773279512591311E-22
2.845E-5                  24469.00272156662        -3.588694277241879E8     3.763997798044497E-22
2.855E-5                  24504.84502463444        -3.579766336321701E8     3.7546639741517333E-22
2.865E-5                  24540.598048293057       -3.570838395401515E8     3.7453331308328174E-22
2.875E-5                  24576.261792542464       -3.561910454481332E8     3.7359939876123657E-22
2.885E-5                  24611.836257382678       -3.5529825135611576E8    3.7266582496509764E-22
2.895E-5                  24647.32144281369        -3.5440545726409715E8    3.7173326160866653E-22
2.905E-5                  24682.717348835497       -3.535126631720785E8     3.7079926449363143E-22
2.915E-5                  24718.023975448108       -3.526198690800615E8     3.698647050263758E-22
2.9250000000000003E-5     24753.241322651502       -3.517270749880431E8     3.689336499769698E-22
2.9350000000000002E-5     24788.369390445707       -3.508342808960248E8     3.679987780680555E-22
2.945E-5                  24823.40817883071        -3.49941486804006E8      3.6706366641983156E-22
2.955E-5                  24858.35768780651        -3.4904869271198803E8    3.6613338472675743E-22
2.965E-5                  24893.217917373113       -3.481558986199701E8     3.65204800448596E-22
2.9749999999999998E-5     24927.9888675305         -3.4726310452795166E8    3.642757498180443E-22
2.985E-5                  24962.670538278704       -3.463703104359335E8     3.633516478196918E-22
2.9950000000000003E-5     24997.262929617704       -3.454775163439156E8     3.624265493213312E-22
3.0050000000000002E-5     25031.766041547486       -3.4458472225189686E8    3.61504070252678E-22