% Model:              3D_chameleons.mph
% Version:            COMSOL 5.0.0.243
% Date:               Apr 7 2016, 15:48
% Dimension:          1
% Nodes:              5000
% Expressions:        3
% Description:        Dependent variable u2, Gradient of u2, x component, Integral on the sphere with radius r
% cln5x                   u2 (1/m)                 u2x (1/m^2)              ballint(2.5e-6[m], -u2x * rho * beta * hbar_const * c_const / m) (J/m)
5.0000000000000004E-8     1810.143235372404        -5.260374461692549E9     1.1350672719983718E-29
1.5E-7                    2334.1264374440407       -5.219289579740184E9     1.143456980502102E-29
2.5E-7                    2854.001151320441        -5.178204697787825E9     1.281875771388155E-29
3.5E-7                    3369.767377001605        -5.137119815835461E9     1.317439099692014E-29
4.5E-7                    3881.4251144875325       -5.096034933883099E9     1.3519440486002662E-29
5.5E-7                    4388.974363778226        -5.054950051930738E9     1.4707657168368572E-29
6.5E-7                    4892.4151248736825       -5.013865169978375E9     1.472960290397625E-29
7.5E-7                    5391.747397773901        -4.972780288026015E9     1.5424340027353099E-29
8.5E-7                    5886.971182478884        -4.931695406073652E9     1.5660940284948788E-29
9.5E-7                    6377.711415173822        -4.886368000757446E9     1.6440742438360559E-29
1.05E-6                   6864.3650897157895       -4.846705490081943E9     1.683491203318879E-29
1.15E-6                   7347.05251319021         -4.807042979406442E9     1.7037181399501654E-29
1.25E-6                   7825.773685597082        -4.767380468730938E9     1.7728861645697102E-29
1.3500000000000002E-6     8300.528606936397        -4.727717958055436E9     1.7986583322442993E-29
1.4499999999999999E-6     8771.317277208167        -4.688055447379933E9     1.8525033301336285E-29
1.55E-6                   9238.139696412385        -4.64839293670443E9      1.8674981983818545E-29
1.65E-6                   9700.995864549053        -4.608730426028928E9     1.912987438918661E-29
1.75E-6                   10159.88578161817        -4.569067915353424E9     1.9099126907747277E-29
1.85E-6                   10614.809447619738       -4.529405404677922E9     1.9421834925583745E-29
1.95E-6                   11065.766862553755       -4.489742894002419E9     1.956537896850475E-29
2.0500000000000003E-6     11512.758026420219       -4.450080383326916E9     1.9634590308952632E-29
2.15E-6                   11955.782939219136       -4.410417872651415E9     1.9600785921374404E-29
2.25E-6                   12394.841600950504       -4.370755361975912E9     1.9661154359541103E-29
2.35E-6                   12829.934011614318       -4.331092851300407E9     1.9653221324606268E-29
2.45E-6                   13261.060171210587       -4.2914303406249056E9    1.951428461352542E-29
2.55E-6                   13688.220079739307       -4.251767829949403E9     1.9364512803787273E-29
2.65E-6                   14111.413737200464       -4.2121053192739E9       1.9218671133122786E-29
2.75E-6                   14530.641143594083       -4.172442808598398E9     1.9076872144675122E-29
2.8500000000000002E-6     14945.902298920151       -4.1327802979228964E9    1.8930343861338334E-29
2.95E-6                   15357.19720317866        -4.0931177872473917E9    1.8791680941349804E-29
3.0500000000000004E-6     15764.525856369633       -4.05345527657189E9      1.8659735499879845E-29
3.15E-6                   16167.888258493032       -4.013792765896386E9     1.8525358145288155E-29
3.25E-6                   16567.284409548898       -3.9741302552208853E9    1.8390336611549458E-29
3.35E-6                   16962.14825935725        -3.927585020555551E9     1.826308219632989E-29
3.45E-6                   17352.81641698607        -3.8857781320208397E9    1.8130315917576378E-29
3.5500000000000003E-6     17739.30388576142        -3.843971243486122E9     1.800697486097701E-29
3.65E-6                   18127.302498300633       -4.014364788422724E9     1.7880726592170588E-29
3.75E-6                   18527.680358435548       -3.9931924142756042E9    1.7755872906657535E-29
3.85E-6                   18925.940981155756       -3.9720200401284924E9    1.763672963852739E-29
3.95E-6                   19323.536228008932       -3.9932244518686028E9    1.7515639046172547E-29
4.05E-6                   19721.352673161335       -3.9631044511794515E9    1.7404444890328682E-29
4.15E-6                   20116.157118244813       -3.9329844504902973E9    1.7291486023048266E-29
4.250000000000001E-6      20507.9495632594         -3.902864449801138E9     1.7170034381870196E-29
4.35E-6                   20896.02998345967        -3.848233734866581E9     1.7059291412605218E-29
4.45E-6                   21279.693693573412       -3.8250404674086237E9    1.6957661248563182E-29
4.5500000000000005E-6     21661.038076941382       -3.801847199950663E9     1.6842754257058436E-29
4.6499999999999995E-6     22040.063133563555       -3.7786539324927006E9    1.6735930574362388E-29
4.75E-6                   22416.768863439924       -3.7554606650347414E9    1.6633290409624734E-29
4.85E-6                   22792.530699581428       -3.770476989893907E9     1.6528054907553429E-29
4.950000000000001E-6      23168.242891074988       -3.7437668399776573E9    1.6423797004025893E-29
5.05E-6                   23541.28406757695        -3.7170566900614104E9    1.6317322042901294E-29
5.15E-6                   23911.654229087268       -3.6903465401451654E9    1.6212107274862025E-29
5.2500000000000006E-6     24279.353375605984       -3.663636390228919E9     1.6115347756582766E-29
5.35E-6                   24644.381507133065       -3.6369262403126707E9    1.6017394063982712E-29
5.45E-6                   25006.738623668516       -3.6102160903964267E9    1.5916675104263636E-29
5.55E-6                   25366.42472521235        -3.5835059404801817E9    1.582163017367624E-29
5.65E-6                   25723.439811764558       -3.5567957905639324E9    1.5722800854428153E-29
5.75E-6                   26077.78388332513        -3.5300856406476874E9    1.5624330181504317E-29
5.85E-6                   26429.456939894088       -3.503375490731437E9     1.552596059008329E-29
5.950000000000001E-6      26778.458981471427       -3.4766653408151913E9    1.5429072779539288E-29
6.05E-6                   27124.790008057134       -3.449955190898947E9     1.5326226991721548E-29
6.15E-6                   27468.450019651216       -3.4232450409826965E9    1.5226859220961445E-29
6.25E-6                   27809.43901625367        -3.396534891066451E9     1.512643857612802E-29
6.35E-6                   28147.756997864508       -3.3698247411502028E9    1.502549035097811E-29
6.45E-6                   28483.403964483714       -3.3431145912339587E9    1.4925778213005415E-29
6.550000000000001E-6      28816.3799161113         -3.3164044413177156E9    1.482943997855556E-29
6.65E-6                   29146.68485274725        -3.2896942914014664E9    1.4734293798620656E-29
6.75E-6                   29474.31877439159        -3.26298414148522E9      1.4640603300159783E-29
6.8500000000000005E-6     29799.281681044293       -3.236273991568973E9     1.4547741008160012E-29
6.9499999999999995E-6     30121.573572705383       -3.209563841652727E9     1.4455801299203233E-29
7.05E-6                   30441.205980748702       -3.18446524052575E9      1.436376449596133E-29
7.15E-6                   30758.874156773807       -3.1688982799766736E9    1.4272519990322625E-29
7.250000000000001E-6      31074.98563674403        -3.1533313194276047E9    1.4182639000439894E-29
7.35E-6                   31389.54042065933        -3.137764358878532E9     1.4096036138719056E-29
7.45E-6                   31702.538508519734       -3.122197398329463E9     1.4008077776054383E-29
7.5500000000000006E-6     32013.979900325223       -3.106630437780388E9     1.3922125220141415E-29
7.65E-6                   32323.864596075808       -3.0910634772313185E9    1.3838960480328908E-29
7.75E-6                   32632.1925957715         -3.0754965166822453E9    1.3754011843984355E-29
7.85E-6                   32938.963899412265       -3.059929556133174E9     1.367229917582049E-29
7.95E-6                   33244.17850699813        -3.0443625955841026E9    1.3592919479229504E-29
8.050000000000001E-6      33547.836418529085       -3.0287956350350294E9    1.351171629176664E-29
8.15E-6                   33849.937634005146       -3.0132286744859543E9    1.3434877998199577E-29
8.25E-6                   34150.48215342629        -2.997661713936885E9     1.3357444346097832E-29
8.35E-6                   34449.469976792505       -2.982094753387811E9     1.3280645924782853E-29
8.449999999999999E-6      34746.90110410384        -2.966527792838743E9     1.320793630373858E-29
8.550000000000001E-6      35042.77553536025        -2.9509608322896714E9    1.3135449207403377E-29
8.65E-6                   35337.093270561774       -2.9353938717405996E9    1.30632491433751E-29
8.750000000000001E-6      35629.85430970838        -2.9198269111915264E9    1.2990161877003666E-29
8.85E-6                   35921.05865280007        -2.9042599506424527E9    1.2921391264203545E-29
8.949999999999999E-6      36210.70629983687        -2.8886929900933814E9    1.2852998651113087E-29
9.050000000000001E-6      36498.79725081877        -2.873126029544311E9     1.2784734333218488E-29
9.15E-6                   36785.33150574573        -2.857559068995241E9     1.2717011094344852E-29
9.25E-6                   37070.3090646178         -2.8419921084461694E9    1.2650120556043066E-29
9.35E-6                   37353.72992743497        -2.8264251478970947E9    1.2584485702871269E-29
9.450000000000001E-6      37635.59409419722        -2.8108581873480253E9    1.2520085473567723E-29
9.55E-6                   37915.901564904576       -2.795291226798954E9     1.2454608851904771E-29
9.65E-6                   38194.652339557004       -2.779724266249881E9     1.2388146708683351E-29
9.75E-6                   38471.84641815456        -2.7641573057008104E9    1.2323662392988918E-29
9.849999999999999E-6      38747.48380069717        -2.7485903451517353E9    1.2259682506019914E-29
9.950000000000001E-6      39021.56448718488        -2.733023384602667E9     1.2197147167827833E-29
1.005E-5                  39294.08847761771        -2.717456424053591E9     1.2131939612165069E-29
1.015E-5                  39565.05577199562        -2.701889463504525E9     1.2069337960984535E-29
1.025E-5                  39834.72511429645        -2.6899030749893985E9    1.2006333527020857E-29
1.0350000000000001E-5     40103.01453840523        -2.6758854071862493E9    1.1944265590478609E-29
1.045E-5                  40369.9021957337         -2.6618677393830957E9    1.1882937148726048E-29
1.055E-5                  40635.38808628188        -2.647850071579945E9     1.1819988308385556E-29
1.065E-5                  40900.56090837637        -2.646220423426856E9     1.1759501299342535E-29
1.0749999999999999E-5     41164.5529276873         -2.6336199627919097E9    1.1695535564179665E-29
1.0850000000000001E-5     41427.28490093476        -2.621019502156965E9     1.1633128888306667E-29
1.095E-5                  41688.7568281187         -2.6084190415220213E9    1.1571700084176579E-29
1.1050000000000001E-5     41948.968709239154       -2.5958185808870773E9    1.1510245614595996E-29
1.115E-5                  42207.92054429614        -2.583218120252131E9     1.1448161622750347E-29
1.1249999999999999E-5     42465.61233328958        -2.570617659617184E9     1.1386106514408116E-29
1.1350000000000001E-5     42722.04407621956        -2.5580171989822426E9    1.1326908686785215E-29
1.145E-5                  42977.21577308604        -2.5454167383472967E9    1.1266184054765573E-29
1.155E-5                  43231.12742388901        -2.5328162777123547E9    1.1207554270719296E-29
1.165E-5                  43483.7790286285         -2.520215817077408E9     1.1148389933877713E-29
1.1750000000000001E-5     43735.1705873045         -2.5076153564424634E9    1.1089496599877778E-29
1.185E-5                  43985.302099917004       -2.495014895807519E9     1.1032779174562036E-29
1.195E-5                  44234.17356646601        -2.4824144351725745E9    1.0975381604752375E-29
1.205E-5                  44481.784986951505       -2.4698139745376296E9    1.0918478426516832E-29
1.2149999999999999E-5     44728.13636137352        -2.457213513902686E9     1.0864389386131395E-29
1.2250000000000001E-5     44973.22768973204        -2.4446130532677407E9    1.0808648497196241E-29
1.235E-5                  45217.05897202708        -2.4320125926327953E9    1.0753110429624658E-29
1.245E-5                  45459.630208258604       -2.4194121319978514E9    1.0701180499870758E-29
1.255E-5                  45700.94139842666        -2.4068116713629084E9    1.0646831664904526E-29
1.2650000000000001E-5     45940.9925425312         -2.3942112107279663E9    1.0594921015119722E-29
1.275E-5                  46179.783640572234       -2.3816107500930157E9    1.054561183225715E-29
1.285E-5                  46417.314692549815       -2.3690102894580755E9    1.0495125088978763E-29
1.295E-5                  46653.58569846384        -2.3564098288231306E9    1.0441812219420546E-29
1.305E-5                  46883.53950770947        -2.287795284232351E9     1.0394759498349401E-29
1.3150000000000001E-5     47111.98053782452        -2.2810253180689435E9    1.0348045892279447E-29
1.325E-5                  47339.74457132327        -2.274255351905533E9     1.02981820753368E-29
1.3350000000000001E-5     47566.831608205655       -2.267485385742123E9     1.0251034602941645E-29
1.345E-5                  47793.24164847168        -2.2607154195787177E9    1.0208510849092284E-29
1.3549999999999999E-5     48018.97469212138        -2.253945453415308E9     1.0162327733964686E-29
1.3650000000000001E-5     48244.030739154754       -2.2471754872519007E9    1.0117583550307248E-29
1.375E-5                  48468.40978957177        -2.2404055210884914E9    1.0074087037714459E-29
1.385E-5                  48692.11184337245        -2.2336355549250827E9    1.0032196829077324E-29
1.395E-5                  48915.136900556776       -2.2268655887616744E9    9.990831658387939E-30
1.4050000000000001E-5     49137.48496112479        -2.2200956225982656E9    9.949479073344566E-30
1.415E-5                  49359.15602507645        -2.213325656434859E9     9.909767876558905E-30
1.425E-5                  49580.15009241175        -2.206555690271452E9     9.8710907525741E-30
1.435E-5                  49800.467163130736       -2.199785724108046E9     9.832341804211011E-30
1.4449999999999999E-5     50020.107237233366       -2.1930157579446335E9    9.795703391251726E-30
1.4550000000000001E-5     50239.070314719655       -2.186245791781229E9     9.757580046073731E-30
1.465E-5                  50457.3563955896         -2.179475825617817E9     9.722152363937664E-30
1.475E-5                  50674.96547984321        -2.172705859454409E9     9.686860089873405E-30
1.485E-5                  50891.89756748049        -2.165935893291003E9     9.65213419404613E-30
1.4950000000000001E-5     51108.15265850142        -2.1591659271275935E9    9.618581313499284E-30
1.505E-5                  51323.730752906005       -2.152395960964186E9     9.585846790944188E-30
1.515E-5                  51538.63185069426        -2.145625994800777E9     9.554070803004538E-30
1.525E-5                  51752.85595186617        -2.1388560286373696E9    9.521744023061946E-30
1.535E-5                  51966.40305642175        -2.1320860624739637E9    9.491331135968889E-30
1.545E-5                  52179.27316436096        -2.1253160963105521E9    9.461805965025013E-30
1.555E-5                  52391.46627568384        -2.118546130147143E9     9.432334996156776E-30
1.565E-5                  52602.98239039038        -2.1117761639837375E9    9.402713626877322E-30
1.575E-5                  52813.82150848056        -2.1050061978203282E9    9.373135037430811E-30
1.585E-5                  53023.98362995443        -2.0982362316569195E9    9.343595110110887E-30
1.5949999999999998E-5     53233.468754811955       -2.0914662654935136E9    9.314155381701687E-30
1.6049999999999997E-5     53442.27688305314        -2.0846962993301067E9    9.284616364105976E-30
1.6150000000000003E-5     53650.40801467802        -2.0779263331666946E9    9.255277458270436E-30
1.6250000000000002E-5     53857.738555210904       -2.0683559198919258E9    9.225782754728347E-30
1.635E-5                  54064.25946338779        -2.0620622436458156E9    9.196285160419828E-30
1.645E-5                  54270.15100394007        -2.055768567399707E9     9.16702860944733E-30
1.655E-5                  54475.41317686774        -2.0494748911535974E9    9.13759285495641E-30
1.665E-5                  54680.0459821708         -2.0431812149074848E9    9.108152463710157E-30
1.675E-5                  54884.04941984924        -2.036887538661377E9     9.078699528550228E-30
1.685E-5                  55087.42348990307        -2.030593862415265E9     9.049337785125875E-30
1.695E-5                  55290.16819233228        -2.024300186169157E9     9.019999402395856E-30
1.705E-5                  55492.28352713691        -2.0180065099230475E9    8.990704362444393E-30
1.715E-5                  55693.769494316904       -2.011712833676937E9     8.961393408669618E-30
1.7250000000000003E-5     55894.626093872284       -2.0054191574308257E9    8.931979255364501E-30
1.735E-5                  56094.85332580306        -1.9991254811847205E9    8.902598573712966E-30
1.745E-5                  56294.45119010923        -1.99283180493861E9      8.873358577602419E-30
1.755E-5                  56493.41968679079        -1.9865381286924984E9    8.84414844358725E-30
1.765E-5                  56691.758815847716       -1.980244452446389E9     8.814902843108637E-30
1.7749999999999998E-5     56889.46857728006        -1.9739507762002754E9    8.785654229441684E-30
1.785E-5                  57086.54897108778        -1.9676570999541686E9    8.75637839641063E-30
1.7950000000000003E-5     57282.999997270905       -1.9613634237080557E9    8.727057749276579E-30
1.805E-5                  57478.8216558294         -1.9550697474619467E9    8.697795496347536E-30
1.815E-5                  57674.01394676329        -1.9487760712158425E9    8.668522425535306E-30
1.825E-5                  57868.57687007255        -1.9424823949697304E9    8.639254322419047E-30
1.8350000000000002E-5     58062.51042575723        -1.9361887187236195E9    8.609909383537372E-30
1.845E-5                  58255.81461381728        -1.929895042477508E9     8.580694540141566E-30
1.855E-5                  58448.48943425274        -1.9236013662314003E9    8.551428654120939E-30
1.865E-5                  58640.534887063564       -1.917307689985287E9     8.522067946144869E-30
1.875E-5                  58831.9509722498         -1.9110140137391808E9    8.492708660356754E-30
1.8849999999999997E-5     59022.73768981139        -1.9047203374930727E9    8.463302882749474E-30
1.8950000000000003E-5     59212.895039748415       -1.898426661246961E9     8.433937850665073E-30
1.9050000000000002E-5     59402.42302206079        -1.892132985000849E9     8.404429234853654E-30
1.915E-5                  59591.32163674857        -1.8858393087547417E9    8.37494300771161E-30
1.925E-5                  59779.59088381174        -1.8795456325086284E9    8.345467915647505E-30
1.935E-5                  59967.230763250314       -1.8732519562625222E9    8.315935466816533E-30
1.945E-5                  60154.24127506424        -1.8669582800164123E9    8.286340289162511E-30
1.955E-5                  60340.62241925359        -1.8606646037703044E9    8.256784564954003E-30
1.965E-5                  60526.3741958183         -1.8543709275241904E9    8.227135104750641E-30
1.975E-5                  60711.496604758424       -1.8480772512780838E9    8.197388033844963E-30
1.985E-5                  60895.98964607393        -1.8417835750319712E9    8.16754024836713E-30
1.995E-5                  61079.85331976481        -1.8354898987858644E9    8.138224107085044E-30
2.005E-5                  61263.08762583109        -1.8291962225397513E9    8.111511643850255E-30
2.0150000000000002E-5     61445.69256427279        -1.8229025462936406E9    8.083248036494013E-30
2.025E-5                  61627.668135089836       -1.8166088700475347E9    8.055127796370204E-30
2.035E-5                  61809.01433828229        -1.8103151938014228E9    8.027363830179067E-30
2.045E-5                  61989.7311738501         -1.8040215175553133E9    7.999228549742599E-30
2.0549999999999998E-5     62169.81864179333        -1.7977278413092027E9    7.972363553438682E-30
2.065E-5                  62349.276742111964       -1.7914341650630941E9    7.945610700767067E-30
2.0750000000000003E-5     62528.10547480597        -1.7851404888169856E9    7.917579224339696E-30
2.0850000000000002E-5     62706.304839875345       -1.7788468125708714E9    7.891110280683721E-30
2.095E-5                  62883.87483732014        -1.7725531363247623E9    7.865264252203204E-30
2.105E-5                  63060.815467140295       -1.7662594600786552E9    7.839265654094811E-30
2.115E-5                  63237.12672933586        -1.7599657838325458E9    7.812203628815383E-30
2.125E-5                  63412.808623906814       -1.7536721075864353E9    7.787020703786374E-30
2.135E-5                  63587.861150853154       -1.7473784313403273E9    7.761860642957597E-30
2.145E-5                  63762.28431017486        -1.7410847550942197E9    7.73568393910925E-30
2.155E-5                  63936.07810187199        -1.7347910788481054E9    7.711585894433864E-30
2.165E-5                  64109.24252594449        -1.728497402601995E9     7.686681548508514E-30
2.175E-5                  64281.77758239238        -1.722203726355886E9     7.662198110867912E-30
2.1850000000000003E-5     64453.93348913883        -1.7180543301720896E9    7.637533426062754E-30
2.195E-5                  64625.38632257719        -1.7110023385949805E9    7.614762018713697E-30
2.205E-5                  64796.13395685784        -1.7039503470178766E9    7.590972119581451E-30
2.215E-5                  64966.17639198077        -1.6968983554407783E9    7.568397311425834E-30
2.225E-5                  65135.51362794599        -1.689846363863676E9     7.545064706751567E-30
2.2349999999999998E-5     65304.14566475349        -1.6827943722865756E9    7.523423273423582E-30
2.245E-5                  65471.146703434795       -1.6591805635976963E9    7.499864122325889E-30
2.2550000000000003E-5     65636.92145325484        -1.656314432802589E9     7.479116764534794E-30
2.265E-5                  65802.40958999535        -1.653448302007487E9     7.458580650337693E-30
2.275E-5                  65967.61111365634        -1.6505821712123787E9    7.43637853171215E-30
2.285E-5                  66132.52602423783        -1.6477160404172792E9    7.41643355515763E-30
2.2950000000000002E-5     66297.15432173978        -1.6448499096221719E9    7.395235025048296E-30
2.305E-5                  66461.49600616224        -1.6419837788270693E9    7.37549361192543E-30
2.315E-5                  66625.84549843993        -1.6543382938007007E9    7.353981146901117E-30
2.325E-5                  66791.09100363814        -1.650571810163745E9     7.334853891321051E-30
2.335E-5                  66955.95986047269        -1.6468053265267913E9    7.316969283152867E-30
2.345E-5                  67120.4520689435         -1.6430388428898273E9    7.29595428709084E-30
2.3550000000000003E-5     67284.56762905065        -1.6392723592528737E9    7.277715284158972E-30
2.3650000000000002E-5     67448.30654079412        -1.6355058756159132E9    7.259272614106134E-30
2.375E-5                  67611.66880417382        -1.6317393919789534E9    7.240987988281906E-30
2.385E-5                  67774.65441918987        -1.6279729083420002E9    7.221968082783438E-30
2.395E-5                  67937.26338584223        -1.6242064247050393E9    7.204920361102462E-30
2.405E-5                  68099.49570413088        -1.6204399410680823E9    7.187163773482405E-30
2.415E-5                  68261.35137405586        -1.6166734574311252E9    7.170039740232321E-30
2.425E-5                  68422.8303956171         -1.612906973794168E9     7.151531674749103E-30
2.435E-5                  68583.93276881467        -1.609140490157206E9     7.13389653176645E-30
2.445E-5                  68744.65849364855        -1.60537400652025E9      7.117622119867267E-30
2.455E-5                  68905.00757011872        -1.6016075228832927E9    7.101126528301516E-30
2.465E-5                  69064.97999822519        -1.5978410392463326E9    7.084839205405766E-30
2.4750000000000002E-5     69224.57577796801        -1.594074555609374E9     7.068326381644885E-30
2.485E-5                  69383.7949093471         -1.5903080719724178E9    7.051877920591427E-30
2.495E-5                  69542.63739236248        -1.5865415883354607E9    7.03656031753562E-30
2.505E-5                  69701.10322701414        -1.582775104698501E9     7.021436322444973E-30
2.5149999999999998E-5     69859.19241330217        -1.5790086210615435E9    7.006269142794371E-30
2.525E-5                  70016.9049512265         -1.5752421374245853E9    6.991047972275603E-30
2.5350000000000003E-5     70174.24084078713        -1.5714756537876272E9    6.975717536123983E-30
2.5450000000000002E-5     70331.20008198402        -1.5677091701506696E9    6.960435163856265E-30
2.555E-5                  70487.78267481725        -1.563942686513712E9     6.945068195447141E-30
2.565E-5                  70643.98861928676        -1.5601762028767538E9    6.929694838575737E-30
2.575E-5                  70799.8179153926         -1.5564097192397945E9    6.914076348320116E-30
2.585E-5                  70955.2705631347         -1.552643235602837E9     6.89857206954205E-30
2.595E-5                  71110.34656251315        -1.54887675196588E9      6.882808497530535E-30
2.605E-5                  71265.04591352792        -1.54511026832892E9      6.86714035566986E-30
2.615E-5                  71419.36861617892        -1.5413437846919625E9    6.851306919254191E-30
2.625E-5                  71573.31467046628        -1.5375773010550056E9    6.835592954936957E-30
2.635E-5                  71726.88407638995        -1.5338108174180455E9    6.819933257291135E-30
2.6450000000000003E-5     71880.0768339499         -1.5300443337810903E9    6.804112099556167E-30
2.655E-5                  72032.89294314616        -1.5262778501441312E9    6.788064228786809E-30
2.665E-5                  72185.33240397874        -1.5225113665071728E9    6.772059228740179E-30
2.675E-5                  72337.39521644759        -1.518744882870215E9     6.755986397888822E-30
2.685E-5                  72489.08138055276        -1.5149783992332554E9    6.739903221360015E-30
2.695E-5                  72640.39089629425        -1.5112119155963001E9    6.723824874275371E-30
2.705E-5                  72791.32376367203        -1.5074454319593396E9    6.707652811201186E-30
2.7150000000000003E-5     72941.87998268612        -1.503678948322382E9     6.6914786374053E-30
2.725E-5                  73092.0595533365         -1.4999124646854262E9    6.675308166339536E-30
2.735E-5                  73241.8624756232         -1.4961459810484686E9    6.658983964618706E-30
2.745E-5                  73391.28874954619        -1.4923794974115095E9    6.64265040600028E-30
2.7550000000000002E-5     73540.33837510551        -1.488613013774553E9     6.626237069831344E-30
2.765E-5                  73689.0113523011         -1.4848465301375937E9    6.609852441598507E-30
2.775E-5                  73837.30768113301        -1.4810800465006359E9    6.593417394315674E-30
2.785E-5                  73985.22736160122        -1.477313562863677E9     6.576966046987575E-30
2.795E-5                  74132.77039370577        -1.473547079226719E9     6.560497065926655E-30
2.805E-5                  74279.93677744656        -1.4697805955897598E9    6.543973018884639E-30
2.8150000000000003E-5     74426.72651282369        -1.4660141119528039E9    6.527398950875675E-30
2.8250000000000002E-5     74573.13959983714        -1.4622476283158445E9    6.510826098311744E-30
2.835E-5                  74719.17603848688        -1.458481144678886E9     6.49420832483994E-30
2.845E-5                  74864.8358287729         -1.4547146610419295E9    6.47758659025885E-30
2.855E-5                  75010.11897069527        -1.45094817740497E9      6.460869900721555E-30
2.865E-5                  75155.02546425391        -1.447181693768013E9     6.44415809076411E-30
2.875E-5                  75299.55530944887        -1.4434152101310556E9    6.427431628720988E-30
2.885E-5                  75443.70850628013        -1.4396487264940977E9    6.41071146545722E-30
2.895E-5                  75587.48505474768        -1.4358822428571386E9    6.394009771372883E-30
2.905E-5                  75730.88495485154        -1.4321157592201781E9    6.377281937378567E-30
2.915E-5                  75873.9082065917         -1.4283492755832238E9    6.360543831415952E-30
2.9250000000000003E-5     76016.55480996818        -1.4245827919462633E9    6.343869651724059E-30
2.9350000000000002E-5     76158.82476498096        -1.4208163083093069E9    6.327125956535085E-30
2.945E-5                  76300.71807163004        -1.4170498246723475E9    6.3103773949491934E-30
2.955E-5                  76442.23472991542        -1.4132833410353904E9    6.293715986245567E-30
2.965E-5                  76583.37473983713        -1.4095168573984318E9    6.277085570986865E-30
2.9749999999999998E-5     76724.13810139512        -1.4057503737614737E9    6.26044636274617E-30
2.985E-5                  76864.52481458943        -1.4019838901245155E9    6.243896775470795E-30
2.9950000000000003E-5     77004.53487942004        -1.3982174064875574E9    6.227329259012761E-30